<?xml version="1.0" encoding="UTF-8"?>

<!-- generated on 2025-07-20 11:37:01 by Eclipse SUMO sumo Version 1.23.1
<sumoConfiguration xmlns:xsi="http://www.w3.org/2001/XMLSchema-instance" xsi:noNamespaceSchemaLocation="http://sumo.dlr.de/xsd/sumoConfiguration.xsd">

    <input>
        <net-file value="sumo_simulation/sumo_elements/test.net.xml"/>
        <route-files value="sumo_simulation/sumo_elements/test.rou.xml"/>
        <additional-files value="sumo_simulation/sumo_elements/test.add.xml"/>
    </input>

    <output>
        <tripinfo-output value="sumo_simulation/sumo_elements/metrics/20250720_113700_tripinfo_log.xml"/>
    </output>

    <report>
        <log value="sumo_simulation/sumo_elements/metrics/20250720_113700_metrics.log"/>
        <duration-log.statistics value="true"/>
    </report>

    <emissions>
        <device.emissions.probability value="1.0"/>
    </emissions>

    <traci_server>
        <remote-port value="54911"/>
    </traci_server>

</sumoConfiguration>
-->

<meandata xmlns:xsi="http://www.w3.org/2001/XMLSchema-instance" xsi:noNamespaceSchemaLocation="http://sumo.dlr.de/xsd/meandata_file.xsd">
    <interval begin="0.00" end="25558.00" id="01">
        <edge id="-E1">
            <lane id="-E1_0" sampledSeconds="0.00" departed="0" arrived="0" entered="0" left="0" laneChangedFrom="0" laneChangedTo="0"/>
            <lane id="-E1_1" sampledSeconds="2864.54" traveltime="8.00" overlapTraveltime="8.39" density="1.25" laneDensity="1.25" occupancy="0.58" waitingTime="0.00" timeLoss="526.61" speed="11.28" speedRelative="0.81" departed="0" arrived="346" entered="340" left="0" laneChangedFrom="0" laneChangedTo="6"/>
            <lane id="-E1_2" sampledSeconds="21954.00" traveltime="7.18" overlapTraveltime="7.56" density="9.59" laneDensity="9.59" occupancy="4.54" waitingTime="0.00" timeLoss="2013.64" speed="12.51" speedRelative="0.90" departed="0" arrived="2933" entered="2939" left="0" laneChangedFrom="6" laneChangedTo="0"/>
        </edge>
        <edge id="-E2">
            <lane id="-E2_0" sampledSeconds="0.00" departed="0" arrived="0" entered="0" left="0" laneChangedFrom="0" laneChangedTo="0"/>
            <lane id="-E2_1" sampledSeconds="3325.93" traveltime="8.05" overlapTraveltime="8.45" density="1.45" laneDensity="1.45" occupancy="0.68" waitingTime="0.00" timeLoss="597.13" speed="11.20" speedRelative="0.81" departed="0" arrived="398" entered="398" left="0" laneChangedFrom="0" laneChangedTo="0"/>
            <lane id="-E2_2" sampledSeconds="3065.17" traveltime="7.27" overlapTraveltime="7.66" density="1.34" laneDensity="1.34" occupancy="0.64" waitingTime="0.00" timeLoss="324.23" speed="12.35" speedRelative="0.89" departed="0" arrived="405" entered="405" left="0" laneChangedFrom="0" laneChangedTo="0"/>
        </edge>
        <edge id="-E3">
            <lane id="-E3_0" sampledSeconds="0.00" departed="0" arrived="0" entered="0" left="0" laneChangedFrom="0" laneChangedTo="0"/>
            <lane id="-E3_1" sampledSeconds="2670.93" traveltime="8.00" overlapTraveltime="8.39" density="1.17" laneDensity="1.17" occupancy="0.54" waitingTime="0.00" timeLoss="483.56" speed="11.27" speedRelative="0.81" departed="0" arrived="326" entered="315" left="0" laneChangedFrom="0" laneChangedTo="11"/>
            <lane id="-E3_2" sampledSeconds="22314.86" traveltime="7.19" overlapTraveltime="7.58" density="9.74" laneDensity="9.74" occupancy="4.62" waitingTime="0.00" timeLoss="2033.21" speed="12.49" speedRelative="0.90" departed="0" arrived="2971" entered="2982" left="0" laneChangedFrom="11" laneChangedTo="0"/>
        </edge>
        <edge id="-E4">
            <lane id="-E4_0" sampledSeconds="0.00" departed="0" arrived="0" entered="0" left="0" laneChangedFrom="0" laneChangedTo="0"/>
            <lane id="-E4_1" sampledSeconds="3124.87" traveltime="8.02" overlapTraveltime="8.41" density="1.36" laneDensity="1.36" occupancy="0.64" waitingTime="0.00" timeLoss="571.03" speed="11.24" speedRelative="0.81" departed="0" arrived="375" entered="375" left="0" laneChangedFrom="0" laneChangedTo="0"/>
            <lane id="-E4_2" sampledSeconds="2901.60" traveltime="7.21" overlapTraveltime="7.60" density="1.27" laneDensity="1.27" occupancy="0.61" waitingTime="0.00" timeLoss="276.80" speed="12.46" speedRelative="0.90" departed="0" arrived="386" entered="386" left="0" laneChangedFrom="0" laneChangedTo="0"/>
        </edge>
        <edge id="E1">
            <lane id="E1_0" sampledSeconds="0.00" departed="0" arrived="0" entered="0" left="0" laneChangedFrom="0" laneChangedTo="0"/>
            <lane id="E1_1" sampledSeconds="152912.85" traveltime="98.54" overlapTraveltime="102.92" density="66.77" laneDensity="66.77" occupancy="33.37" waitingTime="96425.00" timeLoss="119060.94" speed="0.92" speedRelative="0.22" departed="3323" arrived="0" entered="0" left="398" laneChangedFrom="2948" laneChangedTo="23"/>
            <lane id="E1_2" sampledSeconds="257983.17" traveltime="160.46" overlapTraveltime="155.60" density="112.66" laneDensity="112.66" occupancy="56.05" waitingTime="181221.00" timeLoss="223192.57" speed="0.61" speedRelative="0.15" departed="0" arrived="0" entered="0" left="2925" laneChangedFrom="23" laneChangedTo="2948"/>
        </edge>
        <edge id="E2">
            <lane id="E2_0" sampledSeconds="0.00" departed="0" arrived="0" entered="0" left="0" laneChangedFrom="0" laneChangedTo="0"/>
            <lane id="E2_1" sampledSeconds="11517.49" traveltime="30.42" overlapTraveltime="31.59" density="5.03" laneDensity="5.03" occupancy="2.48" waitingTime="6080.00" timeLoss="9228.21" speed="2.99" speedRelative="0.18" departed="760" arrived="0" entered="0" left="315" laneChangedFrom="465" laneChangedTo="20"/>
            <lane id="E2_2" sampledSeconds="20655.43" traveltime="58.07" overlapTraveltime="58.30" density="9.02" laneDensity="9.02" occupancy="4.50" waitingTime="15129.00" timeLoss="18557.93" speed="1.62" speedRelative="0.10" departed="0" arrived="0" entered="0" left="445" laneChangedFrom="20" laneChangedTo="465"/>
        </edge>
        <edge id="E3">
            <lane id="E3_0" sampledSeconds="0.00" departed="0" arrived="0" entered="0" left="0" laneChangedFrom="0" laneChangedTo="0"/>
            <lane id="E3_1" sampledSeconds="155846.98" traveltime="101.01" overlapTraveltime="105.52" density="68.06" laneDensity="68.06" occupancy="34.02" waitingTime="117804.00" timeLoss="147151.29" speed="0.90" speedRelative="0.05" departed="3269" arrived="0" entered="0" left="375" laneChangedFrom="2916" laneChangedTo="22"/>
            <lane id="E3_2" sampledSeconds="240448.44" traveltime="153.56" overlapTraveltime="148.82" density="105.00" laneDensity="105.00" occupancy="52.21" waitingTime="165564.00" timeLoss="206784.19" speed="0.64" speedRelative="0.15" departed="0" arrived="0" entered="0" left="2894" laneChangedFrom="22" laneChangedTo="2916"/>
        </edge>
        <edge id="E4">
            <lane id="E4_0" sampledSeconds="0.00" departed="0" arrived="0" entered="0" left="0" laneChangedFrom="0" laneChangedTo="0"/>
            <lane id="E4_1" sampledSeconds="13458.15" traveltime="34.25" overlapTraveltime="35.43" density="5.88" laneDensity="5.88" occupancy="2.90" waitingTime="7601.00" timeLoss="11070.79" speed="2.67" speedRelative="0.16" departed="788" arrived="0" entered="0" left="340" laneChangedFrom="471" laneChangedTo="23"/>
            <lane id="E4_2" sampledSeconds="24356.21" traveltime="66.41" overlapTraveltime="66.62" density="10.64" laneDensity="10.64" occupancy="5.30" waitingTime="18262.00" timeLoss="22206.11" speed="1.42" speedRelative="0.09" departed="0" arrived="0" entered="0" left="448" laneChangedFrom="23" laneChangedTo="471"/>
        </edge>
    </interval>
</meandata>
