<?xml version="1.0" encoding="UTF-8"?>

<!-- generated on 2025-07-24 14:47:33 by Eclipse SUMO sumo Version 1.23.1
<sumoConfiguration xmlns:xsi="http://www.w3.org/2001/XMLSchema-instance" xsi:noNamespaceSchemaLocation="http://sumo.dlr.de/xsd/sumoConfiguration.xsd">

    <input>
        <net-file value="sumo_simulation/sumo_elements/test.net.xml"/>
        <route-files value="sumo_simulation/sumo_elements/test.rou.xml"/>
        <additional-files value="sumo_simulation/sumo_elements/test.add.xml"/>
    </input>

    <output>
        <tripinfo-output value="sumo_simulation/sumo_elements/metrics/20250724_144733_tripinfo_log.xml"/>
    </output>

    <report>
        <log value="sumo_simulation/sumo_elements/metrics/20250724_144733_metrics.log"/>
        <duration-log.statistics value="true"/>
    </report>

    <emissions>
        <device.emissions.probability value="1.0"/>
    </emissions>

    <traci_server>
        <remote-port value="54684"/>
    </traci_server>

</sumoConfiguration>
-->

<meandata xmlns:xsi="http://www.w3.org/2001/XMLSchema-instance" xsi:noNamespaceSchemaLocation="http://sumo.dlr.de/xsd/meandata_file.xsd">
    <interval begin="0.00" end="10189.00" id="01">
        <edge id="-E1">
            <lane id="-E1_0" sampledSeconds="0.00" departed="0" arrived="0" entered="0" left="0" laneChangedFrom="0" laneChangedTo="0"/>
            <lane id="-E1_1" sampledSeconds="2209.92" traveltime="8.06" overlapTraveltime="8.45" density="2.42" laneDensity="2.42" occupancy="1.13" waitingTime="0.00" timeLoss="406.14" speed="11.19" speedRelative="0.81" departed="0" arrived="268" entered="260" left="0" laneChangedFrom="0" laneChangedTo="8"/>
            <lane id="-E1_2" sampledSeconds="3947.92" traveltime="7.36" overlapTraveltime="7.75" density="4.32" laneDensity="4.32" occupancy="2.06" waitingTime="0.00" timeLoss="459.49" speed="12.21" speedRelative="0.88" departed="0" arrived="511" entered="519" left="0" laneChangedFrom="8" laneChangedTo="0"/>
        </edge>
        <edge id="-E2">
            <lane id="-E2_0" sampledSeconds="0.00" departed="0" arrived="0" entered="0" left="0" laneChangedFrom="0" laneChangedTo="0"/>
            <lane id="-E2_1" sampledSeconds="1326.53" traveltime="8.08" overlapTraveltime="8.48" density="1.45" laneDensity="1.45" occupancy="0.68" waitingTime="0.00" timeLoss="235.42" speed="11.16" speedRelative="0.80" departed="0" arrived="158" entered="155" left="0" laneChangedFrom="0" laneChangedTo="3"/>
            <lane id="-E2_2" sampledSeconds="4998.14" traveltime="7.44" overlapTraveltime="7.83" density="5.47" laneDensity="5.47" occupancy="2.59" waitingTime="0.00" timeLoss="615.73" speed="12.08" speedRelative="0.87" departed="0" arrived="645" entered="648" left="0" laneChangedFrom="3" laneChangedTo="0"/>
        </edge>
        <edge id="-E3">
            <lane id="-E3_0" sampledSeconds="0.00" departed="0" arrived="0" entered="0" left="0" laneChangedFrom="0" laneChangedTo="0"/>
            <lane id="-E3_1" sampledSeconds="2088.07" traveltime="8.04" overlapTraveltime="8.43" density="2.29" laneDensity="2.29" occupancy="1.07" waitingTime="0.00" timeLoss="378.65" speed="11.22" speedRelative="0.81" departed="0" arrived="257" entered="245" left="0" laneChangedFrom="0" laneChangedTo="12"/>
            <lane id="-E3_2" sampledSeconds="4151.27" traveltime="7.28" overlapTraveltime="7.67" density="4.55" laneDensity="4.55" occupancy="2.16" waitingTime="0.00" timeLoss="450.42" speed="12.34" speedRelative="0.89" departed="0" arrived="540" entered="552" left="0" laneChangedFrom="12" laneChangedTo="0"/>
        </edge>
        <edge id="-E4">
            <lane id="-E4_0" sampledSeconds="0.00" departed="0" arrived="0" entered="0" left="0" laneChangedFrom="0" laneChangedTo="0"/>
            <lane id="-E4_1" sampledSeconds="1392.74" traveltime="7.99" overlapTraveltime="8.38" density="1.53" laneDensity="1.53" occupancy="0.71" waitingTime="0.00" timeLoss="246.21" speed="11.29" speedRelative="0.81" departed="0" arrived="168" entered="164" left="0" laneChangedFrom="0" laneChangedTo="4"/>
            <lane id="-E4_2" sampledSeconds="4560.12" traveltime="7.38" overlapTraveltime="7.77" density="5.00" laneDensity="5.00" occupancy="2.37" waitingTime="0.00" timeLoss="528.11" speed="12.18" speedRelative="0.88" departed="0" arrived="593" entered="597" left="0" laneChangedFrom="4" laneChangedTo="0"/>
        </edge>
        <edge id="E1">
            <lane id="E1_0" sampledSeconds="0.00" departed="0" arrived="0" entered="0" left="0" laneChangedFrom="0" laneChangedTo="0"/>
            <lane id="E1_1" sampledSeconds="13349.23" traveltime="35.43" overlapTraveltime="37.10" density="14.62" laneDensity="14.62" occupancy="7.27" waitingTime="8092.00" timeLoss="11177.66" speed="2.55" speedRelative="0.15" departed="823" arrived="0" entered="0" left="155" laneChangedFrom="670" laneChangedTo="2"/>
            <lane id="E1_2" sampledSeconds="14139.92" traveltime="33.31" overlapTraveltime="33.77" density="15.49" laneDensity="15.49" occupancy="7.63" waitingTime="8328.00" timeLoss="11577.07" speed="2.80" speedRelative="0.17" departed="0" arrived="0" entered="0" left="668" laneChangedFrom="2" laneChangedTo="670"/>
        </edge>
        <edge id="E2">
            <lane id="E2_0" sampledSeconds="0.00" departed="0" arrived="0" entered="0" left="0" laneChangedFrom="0" laneChangedTo="0"/>
            <lane id="E2_1" sampledSeconds="12551.59" traveltime="33.99" overlapTraveltime="35.38" density="13.75" laneDensity="13.75" occupancy="6.80" waitingTime="7257.00" timeLoss="10361.52" speed="2.67" speedRelative="0.16" departed="760" arrived="0" entered="0" left="245" laneChangedFrom="527" laneChangedTo="12"/>
            <lane id="E2_2" sampledSeconds="14238.89" traveltime="38.79" overlapTraveltime="39.10" density="15.60" laneDensity="15.60" occupancy="7.73" waitingTime="9248.00" timeLoss="12049.98" speed="2.42" speedRelative="0.15" departed="0" arrived="0" entered="0" left="515" laneChangedFrom="12" laneChangedTo="527"/>
        </edge>
        <edge id="E3">
            <lane id="E3_0" sampledSeconds="0.00" departed="0" arrived="0" entered="0" left="0" laneChangedFrom="0" laneChangedTo="0"/>
            <lane id="E3_1" sampledSeconds="12544.99" traveltime="35.01" overlapTraveltime="36.62" density="13.74" laneDensity="13.74" occupancy="6.82" waitingTime="7567.00" timeLoss="10485.92" speed="2.58" speedRelative="0.15" departed="769" arrived="0" entered="0" left="164" laneChangedFrom="607" laneChangedTo="2"/>
            <lane id="E3_2" sampledSeconds="14270.68" traveltime="36.77" overlapTraveltime="37.08" density="15.63" laneDensity="15.63" occupancy="7.73" waitingTime="8808.00" timeLoss="11921.97" speed="2.55" speedRelative="0.15" departed="0" arrived="0" entered="0" left="605" laneChangedFrom="2" laneChangedTo="607"/>
        </edge>
        <edge id="E4">
            <lane id="E4_0" sampledSeconds="0.00" departed="0" arrived="0" entered="0" left="0" laneChangedFrom="0" laneChangedTo="0"/>
            <lane id="E4_1" sampledSeconds="12891.68" traveltime="33.90" overlapTraveltime="35.26" density="14.12" laneDensity="14.12" occupancy="6.99" waitingTime="7360.00" timeLoss="10633.17" speed="2.68" speedRelative="0.16" departed="788" arrived="0" entered="0" left="260" laneChangedFrom="543" laneChangedTo="15"/>
            <lane id="E4_2" sampledSeconds="15497.68" traveltime="40.48" overlapTraveltime="40.80" density="16.98" laneDensity="16.98" occupancy="8.41" waitingTime="9958.00" timeLoss="13230.30" speed="2.32" speedRelative="0.14" departed="0" arrived="0" entered="0" left="528" laneChangedFrom="15" laneChangedTo="543"/>
        </edge>
    </interval>
</meandata>
