<?xml version="1.0" encoding="UTF-8"?>

<!-- generated on 2025-07-18 10:20:30 by Eclipse SUMO sumo Version 1.23.1
<sumoConfiguration xmlns:xsi="http://www.w3.org/2001/XMLSchema-instance" xsi:noNamespaceSchemaLocation="http://sumo.dlr.de/xsd/sumoConfiguration.xsd">

    <input>
        <net-file value="sumo_simulation/sumo_elements/test.net.xml"/>
        <route-files value="sumo_simulation/sumo_elements/test.rou.xml"/>
        <additional-files value="sumo_simulation/sumo_elements/test.add.xml"/>
    </input>

    <output>
        <tripinfo-output value="sumo_simulation/sumo_elements/metrics/20250718_102030_adaptive_tripinfo_log.xml"/>
    </output>

    <report>
        <log value="sumo_simulation/sumo_elements/metrics/20250718_102030_adaptive_metrics.log"/>
        <duration-log.statistics value="true"/>
    </report>

    <emissions>
        <device.emissions.probability value="1.0"/>
    </emissions>

    <traci_server>
        <remote-port value="60635"/>
    </traci_server>

</sumoConfiguration>
-->

<meandata xmlns:xsi="http://www.w3.org/2001/XMLSchema-instance" xsi:noNamespaceSchemaLocation="http://sumo.dlr.de/xsd/meandata_file.xsd">
    <interval begin="0.00" end="19208.00" id="01">
        <edge id="-E1">
            <lane id="-E1_0" sampledSeconds="0.00" departed="0" arrived="0" entered="0" left="0" laneChangedFrom="0" laneChangedTo="0"/>
            <lane id="-E1_1" sampledSeconds="2637.07" traveltime="8.01" overlapTraveltime="8.40" density="1.53" laneDensity="1.53" occupancy="0.72" waitingTime="0.00" timeLoss="480.71" speed="11.26" speedRelative="0.81" departed="0" arrived="318" entered="316" left="0" laneChangedFrom="0" laneChangedTo="2"/>
            <lane id="-E1_2" sampledSeconds="3502.97" traveltime="7.28" overlapTraveltime="7.67" density="2.04" laneDensity="2.04" occupancy="0.97" waitingTime="0.00" timeLoss="370.83" speed="12.34" speedRelative="0.89" departed="0" arrived="461" entered="463" left="0" laneChangedFrom="2" laneChangedTo="0"/>
        </edge>
        <edge id="-E2">
            <lane id="-E2_0" sampledSeconds="0.00" departed="0" arrived="0" entered="0" left="0" laneChangedFrom="0" laneChangedTo="0"/>
            <lane id="-E2_1" sampledSeconds="3339.35" traveltime="8.06" overlapTraveltime="8.46" density="1.94" laneDensity="1.94" occupancy="0.91" waitingTime="0.00" timeLoss="603.13" speed="11.18" speedRelative="0.81" departed="0" arrived="399" entered="399" left="0" laneChangedFrom="0" laneChangedTo="0"/>
            <lane id="-E2_2" sampledSeconds="3034.12" traveltime="7.19" overlapTraveltime="7.58" density="1.76" laneDensity="1.76" occupancy="0.84" waitingTime="0.00" timeLoss="293.33" speed="12.48" speedRelative="0.90" departed="0" arrived="404" entered="404" left="0" laneChangedFrom="0" laneChangedTo="0"/>
        </edge>
        <edge id="-E3">
            <lane id="-E3_0" sampledSeconds="0.00" departed="0" arrived="0" entered="0" left="0" laneChangedFrom="0" laneChangedTo="0"/>
            <lane id="-E3_1" sampledSeconds="2619.16" traveltime="8.00" overlapTraveltime="8.40" density="1.52" laneDensity="1.52" occupancy="0.71" waitingTime="0.00" timeLoss="477.39" speed="11.26" speedRelative="0.81" departed="0" arrived="319" entered="310" left="0" laneChangedFrom="0" laneChangedTo="9"/>
            <lane id="-E3_2" sampledSeconds="14844.89" traveltime="7.19" overlapTraveltime="7.57" density="8.63" laneDensity="8.63" occupancy="4.09" waitingTime="0.00" timeLoss="1386.11" speed="12.49" speedRelative="0.90" departed="0" arrived="1978" entered="1987" left="0" laneChangedFrom="9" laneChangedTo="0"/>
        </edge>
        <edge id="-E4">
            <lane id="-E4_0" sampledSeconds="0.00" departed="0" arrived="0" entered="0" left="0" laneChangedFrom="0" laneChangedTo="0"/>
            <lane id="-E4_1" sampledSeconds="1779.83" traveltime="8.03" overlapTraveltime="8.42" density="1.03" laneDensity="1.03" occupancy="0.48" waitingTime="0.00" timeLoss="321.99" speed="11.23" speedRelative="0.81" departed="0" arrived="214" entered="212" left="0" laneChangedFrom="0" laneChangedTo="2"/>
            <lane id="-E4_2" sampledSeconds="4208.62" traveltime="7.38" overlapTraveltime="7.77" density="2.45" laneDensity="2.45" occupancy="1.16" waitingTime="0.00" timeLoss="489.73" speed="12.18" speedRelative="0.88" departed="0" arrived="547" entered="549" left="0" laneChangedFrom="2" laneChangedTo="0"/>
        </edge>
        <edge id="E1">
            <lane id="E1_0" sampledSeconds="0.00" departed="0" arrived="0" entered="0" left="0" laneChangedFrom="0" laneChangedTo="0"/>
            <lane id="E1_1" sampledSeconds="124374.73" traveltime="107.81" overlapTraveltime="112.13" density="72.27" laneDensity="72.27" occupancy="36.12" waitingTime="81783.00" timeLoss="99135.31" speed="0.84" speedRelative="0.20" departed="2323" arrived="0" entered="0" left="399" laneChangedFrom="1937" laneChangedTo="13"/>
            <lane id="E1_2" sampledSeconds="196658.48" traveltime="186.71" overlapTraveltime="180.69" density="114.27" laneDensity="114.27" occupancy="56.91" waitingTime="145092.00" timeLoss="173962.58" speed="0.52" speedRelative="0.13" departed="0" arrived="0" entered="0" left="1924" laneChangedFrom="13" laneChangedTo="1937"/>
        </edge>
        <edge id="E2">
            <lane id="E2_0" sampledSeconds="0.00" departed="0" arrived="0" entered="0" left="0" laneChangedFrom="0" laneChangedTo="0"/>
            <lane id="E2_1" sampledSeconds="10618.36" traveltime="27.98" overlapTraveltime="29.15" density="6.17" laneDensity="6.17" occupancy="3.04" waitingTime="5266.00" timeLoss="8338.56" speed="3.25" speedRelative="0.19" departed="760" arrived="0" entered="0" left="310" laneChangedFrom="463" laneChangedTo="13"/>
            <lane id="E2_2" sampledSeconds="18324.76" traveltime="51.37" overlapTraveltime="51.68" density="10.65" laneDensity="10.65" occupancy="5.30" waitingTime="12989.00" timeLoss="16222.63" speed="1.83" speedRelative="0.11" departed="0" arrived="0" entered="0" left="450" laneChangedFrom="13" laneChangedTo="463"/>
        </edge>
        <edge id="E3">
            <lane id="E3_0" sampledSeconds="0.00" departed="0" arrived="0" entered="0" left="0" laneChangedFrom="0" laneChangedTo="0"/>
            <lane id="E3_1" sampledSeconds="11670.09" traveltime="31.98" overlapTraveltime="33.39" density="6.78" laneDensity="6.78" occupancy="3.36" waitingTime="6542.00" timeLoss="9535.70" speed="2.83" speedRelative="0.17" departed="769" arrived="0" entered="0" left="212" laneChangedFrom="559" laneChangedTo="2"/>
            <lane id="E3_2" sampledSeconds="21401.91" traveltime="56.26" overlapTraveltime="56.63" density="12.44" laneDensity="12.44" occupancy="6.17" waitingTime="10146.00" timeLoss="13320.65" speed="1.67" speedRelative="0.40" departed="0" arrived="0" entered="0" left="557" laneChangedFrom="2" laneChangedTo="559"/>
        </edge>
        <edge id="E4">
            <lane id="E4_0" sampledSeconds="0.00" departed="0" arrived="0" entered="0" left="0" laneChangedFrom="0" laneChangedTo="0"/>
            <lane id="E4_1" sampledSeconds="12011.37" traveltime="30.63" overlapTraveltime="31.83" density="6.98" laneDensity="6.98" occupancy="3.44" waitingTime="6379.00" timeLoss="9653.61" speed="2.97" speedRelative="0.18" departed="788" arrived="0" entered="0" left="316" laneChangedFrom="480" laneChangedTo="8"/>
            <lane id="E4_2" sampledSeconds="21296.41" traveltime="57.69" overlapTraveltime="57.87" density="12.37" laneDensity="12.37" occupancy="6.16" waitingTime="15558.00" timeLoss="19121.76" speed="1.64" speedRelative="0.10" departed="0" arrived="0" entered="0" left="472" laneChangedFrom="8" laneChangedTo="480"/>
        </edge>
    </interval>
</meandata>
