<?xml version="1.0" encoding="UTF-8"?>

<!-- generated on 2025-07-20 11:40:33 by Eclipse SUMO sumo Version 1.23.1
<sumoConfiguration xmlns:xsi="http://www.w3.org/2001/XMLSchema-instance" xsi:noNamespaceSchemaLocation="http://sumo.dlr.de/xsd/sumoConfiguration.xsd">

    <input>
        <net-file value="sumo_simulation/sumo_elements/test.net.xml"/>
        <route-files value="sumo_simulation/sumo_elements/test.rou.xml"/>
        <additional-files value="sumo_simulation/sumo_elements/test.add.xml"/>
    </input>

    <output>
        <tripinfo-output value="sumo_simulation/sumo_elements/metrics/20250720_114033_tripinfo_log.xml"/>
    </output>

    <report>
        <log value="sumo_simulation/sumo_elements/metrics/20250720_114033_metrics.log"/>
        <duration-log.statistics value="true"/>
    </report>

    <emissions>
        <device.emissions.probability value="1.0"/>
    </emissions>

    <traci_server>
        <remote-port value="54923"/>
    </traci_server>

</sumoConfiguration>
-->

<meandata xmlns:xsi="http://www.w3.org/2001/XMLSchema-instance" xsi:noNamespaceSchemaLocation="http://sumo.dlr.de/xsd/meandata_file.xsd">
    <interval begin="0.00" end="30228.00" id="01">
        <edge id="-E1">
            <lane id="-E1_0" sampledSeconds="0.00" departed="0" arrived="0" entered="0" left="0" laneChangedFrom="0" laneChangedTo="0"/>
            <lane id="-E1_1" sampledSeconds="2470.81" traveltime="8.03" overlapTraveltime="8.42" density="0.91" laneDensity="0.91" occupancy="0.43" waitingTime="0.00" timeLoss="455.61" speed="11.24" speedRelative="0.81" departed="0" arrived="301" entered="294" left="0" laneChangedFrom="0" laneChangedTo="7"/>
            <lane id="-E1_2" sampledSeconds="22383.69" traveltime="7.20" overlapTraveltime="7.58" density="8.26" laneDensity="8.26" occupancy="3.92" waitingTime="0.00" timeLoss="2089.31" speed="12.48" speedRelative="0.90" departed="0" arrived="2978" entered="2985" left="0" laneChangedFrom="7" laneChangedTo="0"/>
        </edge>
        <edge id="-E2">
            <lane id="-E2_0" sampledSeconds="0.00" departed="0" arrived="0" entered="0" left="0" laneChangedFrom="0" laneChangedTo="0"/>
            <lane id="-E2_1" sampledSeconds="3322.84" traveltime="8.07" overlapTraveltime="8.47" density="1.23" laneDensity="1.23" occupancy="0.57" waitingTime="0.00" timeLoss="603.61" speed="11.17" speedRelative="0.80" departed="0" arrived="397" entered="397" left="0" laneChangedFrom="0" laneChangedTo="0"/>
            <lane id="-E2_2" sampledSeconds="3032.86" traveltime="7.16" overlapTraveltime="7.55" density="1.12" laneDensity="1.12" occupancy="0.53" waitingTime="0.00" timeLoss="282.15" speed="12.53" speedRelative="0.90" departed="0" arrived="406" entered="406" left="0" laneChangedFrom="0" laneChangedTo="0"/>
        </edge>
        <edge id="-E3">
            <lane id="-E3_0" sampledSeconds="0.00" departed="0" arrived="0" entered="0" left="0" laneChangedFrom="0" laneChangedTo="0"/>
            <lane id="-E3_1" sampledSeconds="2556.97" traveltime="8.01" overlapTraveltime="8.40" density="0.94" laneDensity="0.94" occupancy="0.44" waitingTime="0.00" timeLoss="470.07" speed="11.26" speedRelative="0.81" departed="0" arrived="312" entered="301" left="0" laneChangedFrom="0" laneChangedTo="11"/>
            <lane id="-E3_2" sampledSeconds="22434.43" traveltime="7.20" overlapTraveltime="7.59" density="8.28" laneDensity="8.28" occupancy="3.93" waitingTime="0.00" timeLoss="2054.57" speed="12.47" speedRelative="0.90" departed="0" arrived="2985" entered="2996" left="0" laneChangedFrom="11" laneChangedTo="0"/>
        </edge>
        <edge id="-E4">
            <lane id="-E4_0" sampledSeconds="0.00" departed="0" arrived="0" entered="0" left="0" laneChangedFrom="0" laneChangedTo="0"/>
            <lane id="-E4_1" sampledSeconds="3133.09" traveltime="8.01" overlapTraveltime="8.41" density="1.16" laneDensity="1.16" occupancy="0.54" waitingTime="0.00" timeLoss="571.64" speed="11.25" speedRelative="0.81" departed="0" arrived="377" entered="377" left="0" laneChangedFrom="0" laneChangedTo="0"/>
            <lane id="-E4_2" sampledSeconds="2878.65" traveltime="7.19" overlapTraveltime="7.58" density="1.06" laneDensity="1.06" occupancy="0.51" waitingTime="0.00" timeLoss="265.74" speed="12.49" speedRelative="0.90" departed="0" arrived="384" entered="384" left="0" laneChangedFrom="0" laneChangedTo="0"/>
        </edge>
        <edge id="E1">
            <lane id="E1_0" sampledSeconds="0.00" departed="0" arrived="0" entered="0" left="0" laneChangedFrom="0" laneChangedTo="0"/>
            <lane id="E1_1" sampledSeconds="192867.29" traveltime="115.76" overlapTraveltime="120.95" density="71.21" laneDensity="71.21" occupancy="35.61" waitingTime="130946.00" timeLoss="156458.53" speed="0.78" speedRelative="0.19" departed="3323" arrived="0" entered="0" left="397" laneChangedFrom="2938" laneChangedTo="12"/>
            <lane id="E1_2" sampledSeconds="315310.41" traveltime="211.94" overlapTraveltime="203.55" density="116.42" laneDensity="116.42" occupancy="57.96" waitingTime="237555.00" timeLoss="283023.95" speed="0.46" speedRelative="0.11" departed="0" arrived="0" entered="0" left="2926" laneChangedFrom="12" laneChangedTo="2938"/>
        </edge>
        <edge id="E2">
            <lane id="E2_0" sampledSeconds="0.00" departed="0" arrived="0" entered="0" left="0" laneChangedFrom="0" laneChangedTo="0"/>
            <lane id="E2_1" sampledSeconds="11436.53" traveltime="30.27" overlapTraveltime="31.48" density="4.22" laneDensity="4.22" occupancy="2.08" waitingTime="5917.00" timeLoss="9166.74" speed="3.01" speedRelative="0.18" departed="760" arrived="0" entered="0" left="301" laneChangedFrom="475" laneChangedTo="16"/>
            <lane id="E2_2" sampledSeconds="18964.79" traveltime="53.07" overlapTraveltime="53.34" density="7.00" laneDensity="7.00" occupancy="3.49" waitingTime="13605.00" timeLoss="16848.08" speed="1.77" speedRelative="0.11" departed="0" arrived="0" entered="0" left="459" laneChangedFrom="16" laneChangedTo="475"/>
        </edge>
        <edge id="E3">
            <lane id="E3_0" sampledSeconds="0.00" departed="0" arrived="0" entered="0" left="0" laneChangedFrom="0" laneChangedTo="0"/>
            <lane id="E3_1" sampledSeconds="200660.24" traveltime="120.03" overlapTraveltime="125.44" density="74.09" laneDensity="74.09" occupancy="37.04" waitingTime="158635.00" timeLoss="191255.14" speed="0.75" speedRelative="0.05" departed="3269" arrived="0" entered="0" left="377" laneChangedFrom="2917" laneChangedTo="25"/>
            <lane id="E3_2" sampledSeconds="297963.96" traveltime="208.25" overlapTraveltime="199.58" density="110.01" laneDensity="110.01" occupancy="54.76" waitingTime="223863.00" timeLoss="267063.46" speed="0.47" speedRelative="0.11" departed="0" arrived="0" entered="0" left="2892" laneChangedFrom="25" laneChangedTo="2917"/>
        </edge>
        <edge id="E4">
            <lane id="E4_0" sampledSeconds="0.00" departed="0" arrived="0" entered="0" left="0" laneChangedFrom="0" laneChangedTo="0"/>
            <lane id="E4_1" sampledSeconds="12789.45" traveltime="33.13" overlapTraveltime="34.39" density="4.72" laneDensity="4.72" occupancy="2.33" waitingTime="7238.00" timeLoss="10473.80" speed="2.75" speedRelative="0.17" departed="788" arrived="0" entered="0" left="294" laneChangedFrom="505" laneChangedTo="11"/>
            <lane id="E4_2" sampledSeconds="19148.84" traveltime="51.05" overlapTraveltime="51.27" density="7.07" laneDensity="7.07" occupancy="3.51" waitingTime="13397.00" timeLoss="16931.48" speed="1.85" speedRelative="0.11" departed="0" arrived="0" entered="0" left="494" laneChangedFrom="11" laneChangedTo="505"/>
        </edge>
    </interval>
</meandata>
