<?xml version="1.0" encoding="UTF-8"?>

<!-- generated on 2025-07-24 11:31:01 by Eclipse SUMO sumo Version 1.23.1
<sumoConfiguration xmlns:xsi="http://www.w3.org/2001/XMLSchema-instance" xsi:noNamespaceSchemaLocation="http://sumo.dlr.de/xsd/sumoConfiguration.xsd">

    <input>
        <net-file value="sumo_simulation/sumo_elements/test.net.xml"/>
        <route-files value="sumo_simulation/sumo_elements/test.rou.xml"/>
        <additional-files value="sumo_simulation/sumo_elements/test.add.xml"/>
    </input>

    <output>
        <tripinfo-output value="sumo_simulation/sumo_elements/metrics/20250724_113100_tripinfo_log.xml"/>
    </output>

    <report>
        <log value="sumo_simulation/sumo_elements/metrics/20250724_113100_metrics.log"/>
        <duration-log.statistics value="true"/>
    </report>

    <emissions>
        <device.emissions.probability value="1.0"/>
    </emissions>

    <traci_server>
        <remote-port value="53859"/>
    </traci_server>

</sumoConfiguration>
-->

<meandata xmlns:xsi="http://www.w3.org/2001/XMLSchema-instance" xsi:noNamespaceSchemaLocation="http://sumo.dlr.de/xsd/meandata_file.xsd">
    <interval begin="0.00" end="10141.00" id="01">
        <edge id="-E1">
            <lane id="-E1_0" sampledSeconds="0.00" departed="0" arrived="0" entered="0" left="0" laneChangedFrom="0" laneChangedTo="0"/>
            <lane id="-E1_1" sampledSeconds="2277.51" traveltime="8.04" overlapTraveltime="8.44" density="2.51" laneDensity="2.51" occupancy="1.17" waitingTime="0.00" timeLoss="418.44" speed="11.21" speedRelative="0.81" departed="0" arrived="277" entered="268" left="0" laneChangedFrom="0" laneChangedTo="9"/>
            <lane id="-E1_2" sampledSeconds="3871.03" traveltime="7.33" overlapTraveltime="7.72" density="4.26" laneDensity="4.26" occupancy="2.02" waitingTime="0.00" timeLoss="435.57" speed="12.25" speedRelative="0.88" departed="0" arrived="502" entered="511" left="0" laneChangedFrom="9" laneChangedTo="0"/>
        </edge>
        <edge id="-E2">
            <lane id="-E2_0" sampledSeconds="0.00" departed="0" arrived="0" entered="0" left="0" laneChangedFrom="0" laneChangedTo="0"/>
            <lane id="-E2_1" sampledSeconds="1555.90" traveltime="8.11" overlapTraveltime="8.51" density="1.71" laneDensity="1.71" occupancy="0.80" waitingTime="0.00" timeLoss="274.93" speed="11.11" speedRelative="0.80" departed="0" arrived="185" entered="183" left="0" laneChangedFrom="0" laneChangedTo="2"/>
            <lane id="-E2_2" sampledSeconds="4736.33" traveltime="7.37" overlapTraveltime="7.76" density="5.21" laneDensity="5.21" occupancy="2.47" waitingTime="0.00" timeLoss="552.05" speed="12.20" speedRelative="0.88" departed="0" arrived="618" entered="620" left="0" laneChangedFrom="2" laneChangedTo="0"/>
        </edge>
        <edge id="-E3">
            <lane id="-E3_0" sampledSeconds="0.00" departed="0" arrived="0" entered="0" left="0" laneChangedFrom="0" laneChangedTo="0"/>
            <lane id="-E3_1" sampledSeconds="2112.27" traveltime="8.05" overlapTraveltime="8.45" density="2.32" laneDensity="2.32" occupancy="1.08" waitingTime="0.00" timeLoss="384.03" speed="11.20" speedRelative="0.81" departed="0" arrived="258" entered="248" left="0" laneChangedFrom="0" laneChangedTo="10"/>
            <lane id="-E3_2" sampledSeconds="4139.09" traveltime="7.30" overlapTraveltime="7.69" density="4.56" laneDensity="4.56" occupancy="2.16" waitingTime="0.00" timeLoss="458.54" speed="12.31" speedRelative="0.89" departed="0" arrived="539" entered="549" left="0" laneChangedFrom="10" laneChangedTo="0"/>
        </edge>
        <edge id="-E4">
            <lane id="-E4_0" sampledSeconds="0.00" departed="0" arrived="0" entered="0" left="0" laneChangedFrom="0" laneChangedTo="0"/>
            <lane id="-E4_1" sampledSeconds="1693.91" traveltime="8.04" overlapTraveltime="8.44" density="1.86" laneDensity="1.86" occupancy="0.87" waitingTime="0.00" timeLoss="313.63" speed="11.21" speedRelative="0.81" departed="0" arrived="204" entered="197" left="0" laneChangedFrom="0" laneChangedTo="7"/>
            <lane id="-E4_2" sampledSeconds="4273.24" traveltime="7.35" overlapTraveltime="7.74" density="4.70" laneDensity="4.70" occupancy="2.23" waitingTime="0.00" timeLoss="477.14" speed="12.23" speedRelative="0.88" departed="0" arrived="557" entered="564" left="0" laneChangedFrom="7" laneChangedTo="0"/>
        </edge>
        <edge id="E1">
            <lane id="E1_0" sampledSeconds="0.00" departed="0" arrived="0" entered="0" left="0" laneChangedFrom="0" laneChangedTo="0"/>
            <lane id="E1_1" sampledSeconds="20537.16" traveltime="57.19" overlapTraveltime="59.40" density="22.60" laneDensity="22.60" occupancy="11.24" waitingTime="10072.00" timeLoss="12628.76" speed="1.59" speedRelative="0.38" departed="823" arrived="0" entered="0" left="183" laneChangedFrom="655" laneChangedTo="15"/>
            <lane id="E1_2" sampledSeconds="23930.59" traveltime="54.94" overlapTraveltime="55.30" density="26.34" laneDensity="26.34" occupancy="13.05" waitingTime="11136.00" timeLoss="14713.29" speed="1.71" speedRelative="0.41" departed="0" arrived="0" entered="0" left="640" laneChangedFrom="15" laneChangedTo="655"/>
        </edge>
        <edge id="E2">
            <lane id="E2_0" sampledSeconds="0.00" departed="0" arrived="0" entered="0" left="0" laneChangedFrom="0" laneChangedTo="0"/>
            <lane id="E2_1" sampledSeconds="12662.44" traveltime="34.18" overlapTraveltime="35.57" density="13.94" laneDensity="13.94" occupancy="6.90" waitingTime="7342.00" timeLoss="10466.22" speed="2.66" speedRelative="0.16" departed="760" arrived="0" entered="0" left="248" laneChangedFrom="524" laneChangedTo="12"/>
            <lane id="E2_2" sampledSeconds="14273.59" traveltime="39.03" overlapTraveltime="39.33" density="15.71" laneDensity="15.71" occupancy="7.79" waitingTime="9273.00" timeLoss="12093.33" speed="2.41" speedRelative="0.14" departed="0" arrived="0" entered="0" left="512" laneChangedFrom="12" laneChangedTo="524"/>
        </edge>
        <edge id="E3">
            <lane id="E3_0" sampledSeconds="0.00" departed="0" arrived="0" entered="0" left="0" laneChangedFrom="0" laneChangedTo="0"/>
            <lane id="E3_1" sampledSeconds="13174.21" traveltime="36.14" overlapTraveltime="37.71" density="14.50" laneDensity="14.50" occupancy="7.19" waitingTime="7977.00" timeLoss="11049.81" speed="2.51" speedRelative="0.15" departed="769" arrived="0" entered="0" left="197" laneChangedFrom="574" laneChangedTo="2"/>
            <lane id="E3_2" sampledSeconds="21319.37" traveltime="56.09" overlapTraveltime="56.40" density="23.46" laneDensity="23.46" occupancy="11.63" waitingTime="10020.00" timeLoss="13248.70" speed="1.68" speedRelative="0.40" departed="0" arrived="0" entered="0" left="572" laneChangedFrom="2" laneChangedTo="574"/>
        </edge>
        <edge id="E4">
            <lane id="E4_0" sampledSeconds="0.00" departed="0" arrived="0" entered="0" left="0" laneChangedFrom="0" laneChangedTo="0"/>
            <lane id="E4_1" sampledSeconds="13311.48" traveltime="34.89" overlapTraveltime="36.24" density="14.65" laneDensity="14.65" occupancy="7.25" waitingTime="7751.00" timeLoss="11040.36" speed="2.61" speedRelative="0.16" departed="788" arrived="0" entered="0" left="268" laneChangedFrom="539" laneChangedTo="19"/>
            <lane id="E4_2" sampledSeconds="15500.66" traveltime="40.63" overlapTraveltime="40.99" density="17.06" laneDensity="17.06" occupancy="8.44" waitingTime="10021.00" timeLoss="13243.37" speed="2.31" speedRelative="0.14" departed="0" arrived="0" entered="0" left="520" laneChangedFrom="19" laneChangedTo="539"/>
        </edge>
    </interval>
</meandata>
