<?xml version="1.0" encoding="UTF-8"?>

<!-- generated on 2025-07-24 13:08:58 by Eclipse SUMO sumo Version 1.23.1
<sumoConfiguration xmlns:xsi="http://www.w3.org/2001/XMLSchema-instance" xsi:noNamespaceSchemaLocation="http://sumo.dlr.de/xsd/sumoConfiguration.xsd">

    <input>
        <net-file value="sumo_simulation/sumo_elements/test.net.xml"/>
        <route-files value="sumo_simulation/sumo_elements/test.rou.xml"/>
        <additional-files value="sumo_simulation/sumo_elements/test.add.xml"/>
    </input>

    <output>
        <tripinfo-output value="sumo_simulation/sumo_elements/metrics/20250724_130858_tripinfo_log.xml"/>
    </output>

    <report>
        <log value="sumo_simulation/sumo_elements/metrics/20250724_130858_metrics.log"/>
        <duration-log.statistics value="true"/>
    </report>

    <emissions>
        <device.emissions.probability value="1.0"/>
    </emissions>

    <traci_server>
        <remote-port value="54153"/>
    </traci_server>

</sumoConfiguration>
-->

<tripinfos xmlns:xsi="http://www.w3.org/2001/XMLSchema-instance" xsi:noNamespaceSchemaLocation="http://sumo.dlr.de/xsd/tripinfo_file.xsd">
    <tripinfo id="f_3.0" depart="17.00" departLane="E2_1" departPos="5.10" departSpeed="0.00" departDelay="0.00" arrival="36.00" arrivalLane="-E4_2" arrivalPos="89.60" arrivalSpeed="12.99" duration="19.00" routeLength="194.90" waitingTime="0.00" waitingCount="0" stopTime="0.00" timeLoss="4.46" rerouteNo="0" devices="tripinfo_f_3.0 emissions_f_3.0" vType="DEFAULT_VEHTYPE" speedFactor="0.96" vaporized="">
        <emissions CO_abs="364.574127" CO2_abs="65918.031918" HC_abs="2.424647" PMx_abs="5.361395" NOx_abs="21.696025" fuel_abs="21369.594967" electricity_abs="0"/>
    </tripinfo>
    <tripinfo id="f_3.1" depart="19.00" departLane="E2_1" departPos="5.10" departSpeed="0.00" departDelay="1.00" arrival="37.00" arrivalLane="-E4_2" arrivalPos="89.60" arrivalSpeed="14.70" duration="18.00" routeLength="194.90" waitingTime="0.00" waitingCount="0" stopTime="0.00" timeLoss="6.35" rerouteNo="0" devices="tripinfo_f_3.1 emissions_f_3.1" vType="DEFAULT_VEHTYPE" speedFactor="1.16" vaporized="">
        <emissions CO_abs="393.510580" CO2_abs="64761.021831" HC_abs="2.610873" PMx_abs="4.765694" NOx_abs="21.369349" fuel_abs="20994.468263" electricity_abs="0"/>
    </tripinfo>
    <tripinfo id="f_2.0" depart="20.00" departLane="E4_1" departPos="5.10" departSpeed="0.00" departDelay="0.00" arrival="38.00" arrivalLane="-E2_2" arrivalPos="89.60" arrivalSpeed="13.36" duration="18.00" routeLength="194.90" waitingTime="0.00" waitingCount="0" stopTime="0.00" timeLoss="4.50" rerouteNo="0" devices="tripinfo_f_2.0 emissions_f_2.0" vType="DEFAULT_VEHTYPE" speedFactor="1.00" vaporized="">
        <emissions CO_abs="431.580515" CO2_abs="70044.942902" HC_abs="2.866048" PMx_abs="5.646961" NOx_abs="23.411243" fuel_abs="22707.457452" electricity_abs="0"/>
    </tripinfo>
    <tripinfo id="ins0_r0_0" depart="0.00" departLane="E1_1" departPos="5.10" departSpeed="0.00" departDelay="0.00" arrival="45.00" arrivalLane="-E3_2" arrivalPos="89.60" arrivalSpeed="14.01" duration="45.00" routeLength="194.90" waitingTime="8.00" waitingCount="1" stopTime="0.00" timeLoss="18.37" rerouteNo="0" devices="tripinfo_ins0_r0_0 emissions_ins0_r0_0" vType="DEFAULT_VEHTYPE" speedFactor="1.06" vaporized="">
        <emissions CO_abs="293.130751" CO2_abs="95182.834209" HC_abs="1.943152" PMx_abs="4.655275" NOx_abs="31.705976" fuel_abs="30856.925708" electricity_abs="0"/>
    </tripinfo>
    <tripinfo id="ins0_r4_0" depart="0.00" departLane="E3_1" departPos="5.10" departSpeed="0.00" departDelay="0.00" arrival="46.00" arrivalLane="-E1_2" arrivalPos="89.60" arrivalSpeed="13.74" duration="46.00" routeLength="194.90" waitingTime="9.00" waitingCount="1" stopTime="0.00" timeLoss="18.87" rerouteNo="0" devices="tripinfo_ins0_r4_0 emissions_ins0_r4_0" vType="DEFAULT_VEHTYPE" speedFactor="1.01" vaporized="">
        <emissions CO_abs="272.471409" CO2_abs="97960.839169" HC_abs="1.807963" PMx_abs="5.002080" NOx_abs="32.466397" fuel_abs="31757.530085" electricity_abs="0"/>
    </tripinfo>
    <tripinfo id="ins0_r4_1" depart="2.00" departLane="E3_1" departPos="5.10" departSpeed="0.00" departDelay="2.00" arrival="48.00" arrivalLane="-E1_2" arrivalPos="89.60" arrivalSpeed="14.68" duration="46.00" routeLength="194.90" waitingTime="9.00" waitingCount="1" stopTime="0.00" timeLoss="21.32" rerouteNo="0" devices="tripinfo_ins0_r4_1 emissions_ins0_r4_1" vType="DEFAULT_VEHTYPE" speedFactor="1.08" vaporized="">
        <emissions CO_abs="334.549243" CO2_abs="102886.230772" HC_abs="2.219109" PMx_abs="5.091647" NOx_abs="33.381498" fuel_abs="33354.140216" electricity_abs="0"/>
    </tripinfo>
    <tripinfo id="ins0_r0_1" depart="3.00" departLane="E1_1" departPos="5.10" departSpeed="0.00" departDelay="3.00" arrival="49.00" arrivalLane="-E3_2" arrivalPos="89.60" arrivalSpeed="12.57" duration="46.00" routeLength="194.90" waitingTime="7.00" waitingCount="1" stopTime="0.00" timeLoss="15.91" rerouteNo="0" devices="tripinfo_ins0_r0_1 emissions_ins0_r0_1" vType="DEFAULT_VEHTYPE" speedFactor="0.94" vaporized="">
        <emissions CO_abs="241.222641" CO2_abs="93547.235417" HC_abs="1.599954" PMx_abs="4.678469" NOx_abs="30.442858" fuel_abs="30326.643513" electricity_abs="0"/>
    </tripinfo>
    <tripinfo id="f_0.0" depart="13.00" departLane="E1_1" departPos="5.10" departSpeed="0.00" departDelay="0.00" arrival="53.00" arrivalLane="-E3_2" arrivalPos="89.60" arrivalSpeed="13.03" duration="40.00" routeLength="194.90" waitingTime="1.00" waitingCount="1" stopTime="0.00" timeLoss="11.64" rerouteNo="0" devices="tripinfo_f_0.0 emissions_f_0.0" vType="DEFAULT_VEHTYPE" speedFactor="1.00" vaporized="">
        <emissions CO_abs="236.901120" CO2_abs="86616.874540" HC_abs="1.572378" PMx_abs="4.945422" NOx_abs="28.631879" fuel_abs="28079.977648" electricity_abs="0"/>
    </tripinfo>
    <tripinfo id="ins20_r4_0" depart="20.00" departLane="E3_1" departPos="5.10" departSpeed="0.00" departDelay="0.00" arrival="54.00" arrivalLane="-E1_2" arrivalPos="89.60" arrivalSpeed="14.19" duration="34.00" routeLength="194.90" waitingTime="0.00" waitingCount="0" stopTime="0.00" timeLoss="7.05" rerouteNo="0" devices="tripinfo_ins20_r4_0 emissions_ins20_r4_0" vType="DEFAULT_VEHTYPE" speedFactor="1.03" vaporized="">
        <emissions CO_abs="295.320330" CO2_abs="80791.445649" HC_abs="1.958590" PMx_abs="5.146234" NOx_abs="26.949892" fuel_abs="26191.436771" electricity_abs="0"/>
    </tripinfo>
    <tripinfo id="ins20_r4_1" depart="22.00" departLane="E3_1" departPos="5.10" departSpeed="0.00" departDelay="2.00" arrival="57.00" arrivalLane="-E1_2" arrivalPos="89.60" arrivalSpeed="13.36" duration="35.00" routeLength="194.90" waitingTime="0.00" waitingCount="0" stopTime="0.00" timeLoss="9.42" rerouteNo="0" devices="tripinfo_ins20_r4_1 emissions_ins20_r4_1" vType="DEFAULT_VEHTYPE" speedFactor="1.05" vaporized="">
        <emissions CO_abs="263.172697" CO2_abs="78700.911360" HC_abs="1.748639" PMx_abs="5.049705" NOx_abs="25.565600" fuel_abs="25513.658227" electricity_abs="0"/>
    </tripinfo>
    <tripinfo id="ins20_r0_0" depart="20.00" departLane="E1_1" departPos="5.10" departSpeed="0.00" departDelay="0.00" arrival="60.00" arrivalLane="-E3_2" arrivalPos="89.60" arrivalSpeed="11.62" duration="40.00" routeLength="194.90" waitingTime="0.00" waitingCount="0" stopTime="0.00" timeLoss="7.15" rerouteNo="0" devices="tripinfo_ins20_r0_0 emissions_ins20_r0_0" vType="DEFAULT_VEHTYPE" speedFactor="0.86" vaporized="">
        <emissions CO_abs="197.947526" CO2_abs="77836.954751" HC_abs="1.312225" PMx_abs="4.458218" NOx_abs="25.585460" fuel_abs="25233.650110" electricity_abs="0"/>
    </tripinfo>
    <tripinfo id="f_1.0" depart="30.00" departLane="E3_1" departPos="5.10" departSpeed="0.00" departDelay="0.00" arrival="62.00" arrivalLane="-E1_2" arrivalPos="89.60" arrivalSpeed="15.09" duration="32.00" routeLength="194.90" waitingTime="0.00" waitingCount="0" stopTime="0.00" timeLoss="7.46" rerouteNo="0" devices="tripinfo_f_1.0 emissions_f_1.0" vType="DEFAULT_VEHTYPE" speedFactor="1.12" vaporized="">
        <emissions CO_abs="322.278069" CO2_abs="74529.019280" HC_abs="2.134439" PMx_abs="4.505119" NOx_abs="24.251317" fuel_abs="24161.134953" electricity_abs="0"/>
    </tripinfo>
    <tripinfo id="f_0.1" depart="24.00" departLane="E1_1" departPos="5.10" departSpeed="0.00" departDelay="4.00" arrival="65.00" arrivalLane="-E3_2" arrivalPos="89.60" arrivalSpeed="10.38" duration="41.00" routeLength="194.90" waitingTime="0.00" waitingCount="0" stopTime="0.00" timeLoss="7.59" rerouteNo="0" devices="tripinfo_f_0.1 emissions_f_0.1" vType="DEFAULT_VEHTYPE" speedFactor="0.84" vaporized="">
        <emissions CO_abs="170.920315" CO2_abs="75027.560217" HC_abs="1.132872" PMx_abs="4.132548" NOx_abs="24.675546" fuel_abs="24322.883791" electricity_abs="0"/>
    </tripinfo>
    <tripinfo id="ins20_r0_1" depart="22.00" departLane="E1_1" departPos="5.10" departSpeed="0.00" departDelay="2.00" arrival="67.00" arrivalLane="-E3_2" arrivalPos="89.60" arrivalSpeed="14.04" duration="45.00" routeLength="194.90" waitingTime="2.00" waitingCount="2" stopTime="0.00" timeLoss="19.22" rerouteNo="0" devices="tripinfo_ins20_r0_1 emissions_ins20_r0_1" vType="DEFAULT_VEHTYPE" speedFactor="1.09" vaporized="">
        <emissions CO_abs="362.503753" CO2_abs="99161.430291" HC_abs="2.394357" PMx_abs="4.365817" NOx_abs="31.542992" fuel_abs="32146.493746" electricity_abs="0"/>
    </tripinfo>
    <tripinfo id="f_7.1" depart="32.00" departLane="E3_1" departPos="5.10" departSpeed="0.00" departDelay="2.00" arrival="68.00" arrivalLane="-E4_2" arrivalPos="89.60" arrivalSpeed="12.85" duration="36.00" routeLength="188.29" waitingTime="9.00" waitingCount="1" stopTime="0.00" timeLoss="20.77" rerouteNo="0" devices="tripinfo_f_7.1 emissions_f_7.1" vType="DEFAULT_VEHTYPE" speedFactor="1.01" vaporized="">
        <emissions CO_abs="453.951355" CO2_abs="104269.928515" HC_abs="2.998661" PMx_abs="4.831605" NOx_abs="33.837287" fuel_abs="33802.661317" electricity_abs="0"/>
    </tripinfo>
    <tripinfo id="f_1.1" depart="35.00" departLane="E3_1" departPos="5.10" departSpeed="0.00" departDelay="4.00" arrival="69.00" arrivalLane="-E1_2" arrivalPos="89.60" arrivalSpeed="13.89" duration="34.00" routeLength="194.90" waitingTime="0.00" waitingCount="0" stopTime="0.00" timeLoss="6.80" rerouteNo="0" devices="tripinfo_f_1.1 emissions_f_1.1" vType="DEFAULT_VEHTYPE" speedFactor="1.01" vaporized="">
        <emissions CO_abs="306.351520" CO2_abs="78006.943892" HC_abs="2.027545" PMx_abs="4.782706" NOx_abs="25.194913" fuel_abs="25288.636717" electricity_abs="0"/>
    </tripinfo>
    <tripinfo id="ins40_r4_0" depart="40.00" departLane="E3_1" departPos="5.10" departSpeed="0.00" departDelay="0.00" arrival="73.00" arrivalLane="-E1_2" arrivalPos="89.60" arrivalSpeed="13.95" duration="33.00" routeLength="194.90" waitingTime="0.00" waitingCount="0" stopTime="0.00" timeLoss="6.80" rerouteNo="0" devices="tripinfo_ins40_r4_0 emissions_ins40_r4_0" vType="DEFAULT_VEHTYPE" speedFactor="1.08" vaporized="">
        <emissions CO_abs="307.721873" CO2_abs="75790.133751" HC_abs="2.034919" PMx_abs="4.335104" NOx_abs="25.037840" fuel_abs="24570.019855" electricity_abs="0"/>
    </tripinfo>
    <tripinfo id="ins40_r0_0" depart="40.00" departLane="E1_1" departPos="5.10" departSpeed="0.00" departDelay="0.00" arrival="75.00" arrivalLane="-E3_2" arrivalPos="89.60" arrivalSpeed="12.44" duration="35.00" routeLength="194.90" waitingTime="0.00" waitingCount="0" stopTime="0.00" timeLoss="5.66" rerouteNo="0" devices="tripinfo_ins40_r0_0 emissions_ins40_r0_0" vType="DEFAULT_VEHTYPE" speedFactor="0.97" vaporized="">
        <emissions CO_abs="257.960237" CO2_abs="74802.099403" HC_abs="1.709979" PMx_abs="4.655889" NOx_abs="24.691041" fuel_abs="24249.759757" electricity_abs="0"/>
    </tripinfo>
    <tripinfo id="f_4.0" depart="2.00" departLane="E2_1" departPos="5.10" departSpeed="0.00" departDelay="0.00" arrival="79.00" arrivalLane="-E3_1" arrivalPos="89.60" arrivalSpeed="14.26" duration="77.00" routeLength="183.13" waitingTime="55.00" waitingCount="1" stopTime="0.00" timeLoss="64.93" rerouteNo="0" devices="tripinfo_f_4.0 emissions_f_4.0" vType="DEFAULT_VEHTYPE" speedFactor="1.05" vaporized="">
        <emissions CO_abs="477.458575" CO2_abs="172432.896922" HC_abs="3.159106" PMx_abs="5.173858" NOx_abs="61.729928" fuel_abs="55900.781275" electricity_abs="0"/>
    </tripinfo>
    <tripinfo id="f_6.0" depart="7.00" departLane="E4_1" departPos="5.10" departSpeed="0.00" departDelay="0.00" arrival="80.00" arrivalLane="-E1_1" arrivalPos="89.60" arrivalSpeed="13.75" duration="73.00" routeLength="183.13" waitingTime="50.00" waitingCount="1" stopTime="0.00" timeLoss="59.75" rerouteNo="0" devices="tripinfo_f_6.0 emissions_f_6.0" vType="DEFAULT_VEHTYPE" speedFactor="1.02" vaporized="">
        <emissions CO_abs="477.116537" CO2_abs="166484.764108" HC_abs="3.156162" PMx_abs="5.545532" NOx_abs="59.695701" fuel_abs="53972.410581" electricity_abs="0"/>
    </tripinfo>
    <tripinfo id="f_7.0" depart="12.00" departLane="E3_1" departPos="5.10" departSpeed="0.00" departDelay="0.00" arrival="80.00" arrivalLane="-E4_1" arrivalPos="89.60" arrivalSpeed="13.53" duration="68.00" routeLength="183.13" waitingTime="45.00" waitingCount="1" stopTime="0.00" timeLoss="55.22" rerouteNo="0" devices="tripinfo_f_7.0 emissions_f_7.0" vType="DEFAULT_VEHTYPE" speedFactor="1.01" vaporized="">
        <emissions CO_abs="457.201635" CO2_abs="155869.144929" HC_abs="3.023614" PMx_abs="5.116813" NOx_abs="55.078754" fuel_abs="50530.917943" electricity_abs="0"/>
    </tripinfo>
    <tripinfo id="f_4.1" depart="42.00" departLane="E2_1" departPos="5.10" departSpeed="0.00" departDelay="0.00" arrival="84.00" arrivalLane="-E3_1" arrivalPos="89.60" arrivalSpeed="12.62" duration="42.00" routeLength="183.13" waitingTime="17.00" waitingCount="1" stopTime="0.00" timeLoss="28.42" rerouteNo="0" devices="tripinfo_f_4.1 emissions_f_4.1" vType="DEFAULT_VEHTYPE" speedFactor="0.98" vaporized="">
        <emissions CO_abs="374.583504" CO2_abs="110868.536839" HC_abs="2.476970" PMx_abs="4.728107" NOx_abs="36.988250" fuel_abs="35941.956851" electricity_abs="0"/>
    </tripinfo>
    <tripinfo id="f_5.0" depart="54.00" departLane="E1_1" departPos="5.10" departSpeed="0.00" departDelay="0.00" arrival="86.00" arrivalLane="-E2_1" arrivalPos="89.60" arrivalSpeed="13.82" duration="32.00" routeLength="183.13" waitingTime="0.00" waitingCount="0" stopTime="0.00" timeLoss="6.04" rerouteNo="0" devices="tripinfo_f_5.0 emissions_f_5.0" vType="DEFAULT_VEHTYPE" speedFactor="1.07" vaporized="">
        <emissions CO_abs="282.549469" CO2_abs="72903.884235" HC_abs="1.871612" PMx_abs="4.273035" NOx_abs="23.300772" fuel_abs="23634.272960" electricity_abs="0"/>
    </tripinfo>
    <tripinfo id="f_4.2" depart="66.00" departLane="E2_1" departPos="5.10" departSpeed="0.00" departDelay="0.00" arrival="86.00" arrivalLane="-E3_1" arrivalPos="89.60" arrivalSpeed="14.39" duration="20.00" routeLength="183.13" waitingTime="0.00" waitingCount="0" stopTime="0.00" timeLoss="7.16" rerouteNo="0" devices="tripinfo_f_4.2 emissions_f_4.2" vType="DEFAULT_VEHTYPE" speedFactor="1.06" vaporized="">
        <emissions CO_abs="433.643557" CO2_abs="76720.573691" HC_abs="2.870975" PMx_abs="4.970275" NOx_abs="24.460425" fuel_abs="24871.531902" electricity_abs="0"/>
    </tripinfo>
    <tripinfo id="f_6.1" depart="49.00" departLane="E4_1" departPos="5.10" departSpeed="0.00" departDelay="0.00" arrival="87.00" arrivalLane="-E1_1" arrivalPos="89.60" arrivalSpeed="9.00" duration="38.00" routeLength="183.13" waitingTime="10.00" waitingCount="1" stopTime="0.00" timeLoss="18.97" rerouteNo="0" devices="tripinfo_f_6.1 emissions_f_6.1" vType="DEFAULT_VEHTYPE" speedFactor="0.72" vaporized="">
        <emissions CO_abs="239.772261" CO2_abs="90505.112189" HC_abs="1.589193" PMx_abs="4.774880" NOx_abs="29.949205" fuel_abs="29340.451776" electricity_abs="0"/>
    </tripinfo>
    <tripinfo id="f_6.2" depart="70.00" departLane="E4_1" departPos="5.10" departSpeed="0.00" departDelay="1.00" arrival="90.00" arrivalLane="-E1_1" arrivalPos="89.60" arrivalSpeed="12.72" duration="20.00" routeLength="183.13" waitingTime="0.00" waitingCount="0" stopTime="0.00" timeLoss="6.31" rerouteNo="0" devices="tripinfo_f_6.2 emissions_f_6.2" vType="DEFAULT_VEHTYPE" speedFactor="0.93" vaporized="">
        <emissions CO_abs="432.716033" CO2_abs="78976.903180" HC_abs="2.863621" PMx_abs="5.351347" NOx_abs="25.449570" fuel_abs="25603.031302" electricity_abs="0"/>
    </tripinfo>
    <tripinfo id="f_7.2" depart="72.00" departLane="E3_1" departPos="5.10" departSpeed="0.00" departDelay="0.00" arrival="92.00" arrivalLane="-E4_1" arrivalPos="89.60" arrivalSpeed="14.10" duration="20.00" routeLength="183.13" waitingTime="0.00" waitingCount="0" stopTime="0.00" timeLoss="6.75" rerouteNo="0" devices="tripinfo_f_7.2 emissions_f_7.2" vType="DEFAULT_VEHTYPE" speedFactor="1.06" vaporized="">
        <emissions CO_abs="536.736386" CO2_abs="85956.961470" HC_abs="3.549643" PMx_abs="5.377224" NOx_abs="28.016664" fuel_abs="27865.810817" electricity_abs="0"/>
    </tripinfo>
    <tripinfo id="f_4.3" depart="77.00" departLane="E2_1" departPos="5.10" departSpeed="0.00" departDelay="0.00" arrival="97.00" arrivalLane="-E3_1" arrivalPos="89.60" arrivalSpeed="12.78" duration="20.00" routeLength="183.13" waitingTime="0.00" waitingCount="0" stopTime="0.00" timeLoss="6.25" rerouteNo="0" devices="tripinfo_f_4.3 emissions_f_4.3" vType="DEFAULT_VEHTYPE" speedFactor="0.93" vaporized="">
        <emissions CO_abs="437.317352" CO2_abs="78317.460472" HC_abs="2.893107" PMx_abs="4.987381" NOx_abs="25.155575" fuel_abs="25389.228973" electricity_abs="0"/>
    </tripinfo>
    <tripinfo id="f_7.3" depart="76.00" departLane="E3_1" departPos="5.10" departSpeed="0.00" departDelay="0.00" arrival="98.00" arrivalLane="-E4_1" arrivalPos="89.60" arrivalSpeed="12.20" duration="22.00" routeLength="183.13" waitingTime="0.00" waitingCount="0" stopTime="0.00" timeLoss="6.48" rerouteNo="0" devices="tripinfo_f_7.3 emissions_f_7.3" vType="DEFAULT_VEHTYPE" speedFactor="0.88" vaporized="">
        <emissions CO_abs="426.154321" CO2_abs="79699.176321" HC_abs="2.820327" PMx_abs="5.108028" NOx_abs="25.505340" fuel_abs="25837.163529" electricity_abs="0"/>
    </tripinfo>
    <tripinfo id="f_4.4" depart="82.00" departLane="E2_1" departPos="5.10" departSpeed="0.00" departDelay="1.00" arrival="102.00" arrivalLane="-E3_1" arrivalPos="89.60" arrivalSpeed="12.28" duration="20.00" routeLength="183.13" waitingTime="0.00" waitingCount="0" stopTime="0.00" timeLoss="6.12" rerouteNo="0" devices="tripinfo_f_4.4 emissions_f_4.4" vType="DEFAULT_VEHTYPE" speedFactor="0.94" vaporized="">
        <emissions CO_abs="441.231743" CO2_abs="77823.038342" HC_abs="2.918514" PMx_abs="4.915860" NOx_abs="25.128043" fuel_abs="25228.942810" electricity_abs="0"/>
    </tripinfo>
    <tripinfo id="f_6.3" depart="86.00" departLane="E4_1" departPos="5.10" departSpeed="0.00" departDelay="0.00" arrival="105.00" arrivalLane="-E1_1" arrivalPos="89.60" arrivalSpeed="14.07" duration="19.00" routeLength="183.13" waitingTime="0.00" waitingCount="0" stopTime="0.00" timeLoss="6.37" rerouteNo="0" devices="tripinfo_f_6.3 emissions_f_6.3" vType="DEFAULT_VEHTYPE" speedFactor="1.05" vaporized="">
        <emissions CO_abs="518.093627" CO2_abs="85276.240171" HC_abs="3.430186" PMx_abs="5.538848" NOx_abs="27.517562" fuel_abs="27645.126466" electricity_abs="0"/>
    </tripinfo>
    <tripinfo id="f_4.5" depart="89.00" departLane="E2_1" departPos="5.10" departSpeed="0.00" departDelay="0.00" arrival="111.00" arrivalLane="-E3_1" arrivalPos="89.60" arrivalSpeed="10.69" duration="22.00" routeLength="183.13" waitingTime="0.00" waitingCount="0" stopTime="0.00" timeLoss="6.49" rerouteNo="0" devices="tripinfo_f_4.5 emissions_f_4.5" vType="DEFAULT_VEHTYPE" speedFactor="0.84" vaporized="">
        <emissions CO_abs="339.428380" CO2_abs="71999.981336" HC_abs="2.244804" PMx_abs="4.399068" NOx_abs="22.524681" fuel_abs="23341.198085" electricity_abs="0"/>
    </tripinfo>
    <tripinfo id="f_3.2" depart="21.00" departLane="E2_1" departPos="5.10" departSpeed="0.00" departDelay="1.00" arrival="116.00" arrivalLane="-E4_2" arrivalPos="89.60" arrivalSpeed="12.30" duration="95.00" routeLength="194.90" waitingTime="69.00" waitingCount="1" stopTime="0.00" timeLoss="80.17" rerouteNo="0" devices="tripinfo_f_3.2 emissions_f_3.2" vType="DEFAULT_VEHTYPE" speedFactor="0.91" vaporized="">
        <emissions CO_abs="445.354196" CO2_abs="194967.142120" HC_abs="2.946029" PMx_abs="5.233231" NOx_abs="70.670323" fuel_abs="63206.275139" electricity_abs="0"/>
    </tripinfo>
    <tripinfo id="f_2.1" depart="23.00" departLane="E4_1" departPos="5.10" departSpeed="0.00" departDelay="0.00" arrival="116.00" arrivalLane="-E2_2" arrivalPos="89.60" arrivalSpeed="13.64" duration="93.00" routeLength="194.90" waitingTime="69.00" waitingCount="1" stopTime="0.00" timeLoss="79.63" rerouteNo="0" devices="tripinfo_f_2.1 emissions_f_2.1" vType="DEFAULT_VEHTYPE" speedFactor="1.03" vaporized="">
        <emissions CO_abs="510.935865" CO2_abs="199564.395788" HC_abs="3.384500" PMx_abs="5.984931" NOx_abs="72.894836" fuel_abs="64696.609197" electricity_abs="0"/>
    </tripinfo>
    <tripinfo id="f_2.2" depart="47.00" departLane="E4_1" departPos="5.10" departSpeed="0.00" departDelay="0.00" arrival="117.00" arrivalLane="-E2_2" arrivalPos="89.60" arrivalSpeed="14.96" duration="70.00" routeLength="194.90" waitingTime="47.00" waitingCount="1" stopTime="0.00" timeLoss="58.32" rerouteNo="0" devices="tripinfo_f_2.2 emissions_f_2.2" vType="DEFAULT_VEHTYPE" speedFactor="1.13" vaporized="">
        <emissions CO_abs="581.776926" CO2_abs="167869.568813" HC_abs="3.842323" PMx_abs="5.205100" NOx_abs="60.009032" fuel_abs="54421.211441" electricity_abs="0"/>
    </tripinfo>
    <tripinfo id="f_3.3" depart="39.00" departLane="E2_1" departPos="5.10" departSpeed="0.00" departDelay="0.00" arrival="118.00" arrivalLane="-E4_2" arrivalPos="89.60" arrivalSpeed="13.08" duration="79.00" routeLength="194.90" waitingTime="55.00" waitingCount="1" stopTime="0.00" timeLoss="64.77" rerouteNo="0" devices="tripinfo_f_3.3 emissions_f_3.3" vType="DEFAULT_VEHTYPE" speedFactor="0.96" vaporized="">
        <emissions CO_abs="467.245698" CO2_abs="171864.757290" HC_abs="3.089239" PMx_abs="5.150666" NOx_abs="61.495929" fuel_abs="55716.598208" electricity_abs="0"/>
    </tripinfo>
    <tripinfo id="f_3.4" depart="49.00" departLane="E2_1" departPos="5.10" departSpeed="0.00" departDelay="0.00" arrival="119.00" arrivalLane="-E4_2" arrivalPos="89.60" arrivalSpeed="13.69" duration="70.00" routeLength="194.90" waitingTime="46.00" waitingCount="1" stopTime="0.00" timeLoss="57.19" rerouteNo="0" devices="tripinfo_f_3.4 emissions_f_3.4" vType="DEFAULT_VEHTYPE" speedFactor="1.02" vaporized="">
        <emissions CO_abs="419.061114" CO2_abs="154746.765875" HC_abs="2.772142" PMx_abs="4.927637" NOx_abs="55.129200" fuel_abs="50167.051956" electricity_abs="0"/>
    </tripinfo>
    <tripinfo id="f_2.3" depart="68.00" departLane="E4_1" departPos="5.10" departSpeed="0.00" departDelay="0.00" arrival="119.00" arrivalLane="-E2_2" arrivalPos="89.60" arrivalSpeed="15.56" duration="51.00" routeLength="194.90" waitingTime="27.00" waitingCount="1" stopTime="0.00" timeLoss="39.18" rerouteNo="0" devices="tripinfo_f_2.3 emissions_f_2.3" vType="DEFAULT_VEHTYPE" speedFactor="1.14" vaporized="">
        <emissions CO_abs="555.727917" CO2_abs="137538.727607" HC_abs="3.677373" PMx_abs="5.785796" NOx_abs="47.374446" fuel_abs="44588.175104" electricity_abs="0"/>
    </tripinfo>
    <tripinfo id="f_3.5" depart="61.00" departLane="E2_1" departPos="5.10" departSpeed="0.00" departDelay="0.00" arrival="121.00" arrivalLane="-E4_2" arrivalPos="89.60" arrivalSpeed="14.53" duration="60.00" routeLength="194.90" waitingTime="36.00" waitingCount="1" stopTime="0.00" timeLoss="47.47" rerouteNo="0" devices="tripinfo_f_3.5 emissions_f_3.5" vType="DEFAULT_VEHTYPE" speedFactor="1.07" vaporized="">
        <emissions CO_abs="461.537547" CO2_abs="145349.316147" HC_abs="3.058271" PMx_abs="5.723515" NOx_abs="51.223268" fuel_abs="47120.412719" electricity_abs="0"/>
    </tripinfo>
    <tripinfo id="f_2.4" depart="89.00" departLane="E4_1" departPos="5.10" departSpeed="0.00" departDelay="0.00" arrival="122.00" arrivalLane="-E2_2" arrivalPos="89.60" arrivalSpeed="11.43" duration="33.00" routeLength="194.90" waitingTime="8.00" waitingCount="1" stopTime="0.00" timeLoss="18.39" rerouteNo="0" devices="tripinfo_f_2.4 emissions_f_2.4" vType="DEFAULT_VEHTYPE" speedFactor="0.91" vaporized="">
        <emissions CO_abs="369.901029" CO2_abs="91840.809803" HC_abs="2.444517" PMx_abs="4.343151" NOx_abs="29.967831" fuel_abs="29773.324236" electricity_abs="0"/>
    </tripinfo>
    <tripinfo id="f_3.6" depart="81.00" departLane="E2_1" departPos="5.10" departSpeed="0.00" departDelay="0.00" arrival="125.00" arrivalLane="-E4_2" arrivalPos="89.60" arrivalSpeed="10.24" duration="44.00" routeLength="194.90" waitingTime="17.00" waitingCount="1" stopTime="0.00" timeLoss="27.80" rerouteNo="0" devices="tripinfo_f_3.6 emissions_f_3.6" vType="DEFAULT_VEHTYPE" speedFactor="0.81" vaporized="">
        <emissions CO_abs="281.201045" CO2_abs="102499.565132" HC_abs="1.860055" PMx_abs="4.705464" NOx_abs="34.294699" fuel_abs="33228.987620" electricity_abs="0"/>
    </tripinfo>
    <tripinfo id="f_2.5" depart="110.00" departLane="E4_1" departPos="5.10" departSpeed="0.00" departDelay="0.00" arrival="128.00" arrivalLane="-E2_2" arrivalPos="89.60" arrivalSpeed="12.78" duration="18.00" routeLength="194.90" waitingTime="0.00" waitingCount="0" stopTime="0.00" timeLoss="4.48" rerouteNo="0" devices="tripinfo_f_2.5 emissions_f_2.5" vType="DEFAULT_VEHTYPE" speedFactor="0.98" vaporized="">
        <emissions CO_abs="399.322393" CO2_abs="67278.099766" HC_abs="2.648205" PMx_abs="5.518116" NOx_abs="22.392351" fuel_abs="21810.500353" electricity_abs="0"/>
    </tripinfo>
    <tripinfo id="f_3.7" depart="114.00" departLane="E2_1" departPos="5.10" departSpeed="0.00" departDelay="0.00" arrival="131.00" arrivalLane="-E4_2" arrivalPos="89.60" arrivalSpeed="14.62" duration="17.00" routeLength="194.90" waitingTime="0.00" waitingCount="0" stopTime="0.00" timeLoss="5.14" rerouteNo="0" devices="tripinfo_f_3.7 emissions_f_3.7" vType="DEFAULT_VEHTYPE" speedFactor="1.15" vaporized="">
        <emissions CO_abs="474.589863" CO2_abs="68418.618396" HC_abs="3.146818" PMx_abs="4.857242" NOx_abs="22.899078" fuel_abs="22180.165225" electricity_abs="0"/>
    </tripinfo>
    <tripinfo id="f_3.8" depart="118.00" departLane="E2_1" departPos="5.10" departSpeed="0.00" departDelay="0.00" arrival="135.00" arrivalLane="-E4_2" arrivalPos="89.60" arrivalSpeed="14.10" duration="17.00" routeLength="194.90" waitingTime="0.00" waitingCount="0" stopTime="0.00" timeLoss="4.58" rerouteNo="0" devices="tripinfo_f_3.8 emissions_f_3.8" vType="DEFAULT_VEHTYPE" speedFactor="1.06" vaporized="">
        <emissions CO_abs="427.413510" CO2_abs="64217.712144" HC_abs="2.830392" PMx_abs="4.313560" NOx_abs="21.213906" fuel_abs="20818.293577" electricity_abs="0"/>
    </tripinfo>
    <tripinfo id="f_3.9" depart="123.00" departLane="E2_1" departPos="5.10" departSpeed="0.00" departDelay="0.00" arrival="141.00" arrivalLane="-E4_2" arrivalPos="89.60" arrivalSpeed="13.85" duration="18.00" routeLength="194.90" waitingTime="0.00" waitingCount="0" stopTime="0.00" timeLoss="4.33" rerouteNo="0" devices="tripinfo_f_3.9 emissions_f_3.9" vType="DEFAULT_VEHTYPE" speedFactor="1.00" vaporized="">
        <emissions CO_abs="425.629161" CO2_abs="69017.776439" HC_abs="2.826791" PMx_abs="5.357393" NOx_abs="22.866088" fuel_abs="22374.452249" electricity_abs="0"/>
    </tripinfo>
    <tripinfo id="f_6.5" depart="122.00" departLane="E4_1" departPos="5.10" departSpeed="0.00" departDelay="0.00" arrival="143.00" arrivalLane="-E1_2" arrivalPos="89.60" arrivalSpeed="13.22" duration="21.00" routeLength="188.29" waitingTime="0.00" waitingCount="0" stopTime="0.00" timeLoss="7.55" rerouteNo="0" devices="tripinfo_f_6.5 emissions_f_6.5" vType="DEFAULT_VEHTYPE" speedFactor="1.00" vaporized="">
        <emissions CO_abs="448.451483" CO2_abs="82217.990864" HC_abs="2.964546" PMx_abs="4.876433" NOx_abs="25.980132" fuel_abs="26653.680485" electricity_abs="0"/>
    </tripinfo>
    <tripinfo id="ins40_r0_1" depart="41.00" departLane="E1_1" departPos="5.10" departSpeed="0.00" departDelay="1.00" arrival="150.00" arrivalLane="-E3_2" arrivalPos="89.60" arrivalSpeed="14.76" duration="109.00" routeLength="194.90" waitingTime="72.00" waitingCount="2" stopTime="0.00" timeLoss="83.17" rerouteNo="0" devices="tripinfo_ins40_r0_1 emissions_ins40_r0_1" vType="DEFAULT_VEHTYPE" speedFactor="1.09" vaporized="">
        <emissions CO_abs="316.985497" CO2_abs="198605.833737" HC_abs="2.099590" PMx_abs="5.203672" NOx_abs="73.013587" fuel_abs="64386.105088" electricity_abs="0"/>
    </tripinfo>
    <tripinfo id="f_1.2" depart="45.00" departLane="E3_1" departPos="5.10" departSpeed="0.00" departDelay="5.00" arrival="150.00" arrivalLane="-E1_2" arrivalPos="89.60" arrivalSpeed="15.14" duration="105.00" routeLength="194.90" waitingTime="72.00" waitingCount="1" stopTime="0.00" timeLoss="84.58" rerouteNo="0" devices="tripinfo_f_1.2 emissions_f_1.2" vType="DEFAULT_VEHTYPE" speedFactor="1.14" vaporized="">
        <emissions CO_abs="390.363511" CO2_abs="200348.486473" HC_abs="2.583523" PMx_abs="4.880851" NOx_abs="72.167287" fuel_abs="64950.802691" electricity_abs="0"/>
    </tripinfo>