<?xml version="1.0" encoding="UTF-8"?>

<!-- generated on 2025-07-24 13:26:52 by Eclipse SUMO sumo Version 1.23.1
<sumoConfiguration xmlns:xsi="http://www.w3.org/2001/XMLSchema-instance" xsi:noNamespaceSchemaLocation="http://sumo.dlr.de/xsd/sumoConfiguration.xsd">

    <input>
        <net-file value="sumo_simulation/sumo_elements/test.net.xml"/>
        <route-files value="sumo_simulation/sumo_elements/test.rou.xml"/>
        <additional-files value="sumo_simulation/sumo_elements/test.add.xml"/>
    </input>

    <output>
        <tripinfo-output value="sumo_simulation/sumo_elements/metrics/20250724_132651_tripinfo_log.xml"/>
    </output>

    <report>
        <log value="sumo_simulation/sumo_elements/metrics/20250724_132651_metrics.log"/>
        <duration-log.statistics value="true"/>
    </report>

    <emissions>
        <device.emissions.probability value="1.0"/>
    </emissions>

    <traci_server>
        <remote-port value="54356"/>
    </traci_server>

</sumoConfiguration>
-->

<meandata xmlns:xsi="http://www.w3.org/2001/XMLSchema-instance" xsi:noNamespaceSchemaLocation="http://sumo.dlr.de/xsd/meandata_file.xsd">
    <interval begin="0.00" end="13603.00" id="01">
        <edge id="-E1">
            <lane id="-E1_0" sampledSeconds="0.00" departed="0" arrived="0" entered="0" left="0" laneChangedFrom="0" laneChangedTo="0"/>
            <lane id="-E1_1" sampledSeconds="2625.69" traveltime="8.03" overlapTraveltime="8.42" density="2.15" laneDensity="2.15" occupancy="1.01" waitingTime="0.00" timeLoss="484.70" speed="11.23" speedRelative="0.81" departed="0" arrived="318" entered="311" left="0" laneChangedFrom="0" laneChangedTo="7"/>
            <lane id="-E1_2" sampledSeconds="10987.63" traveltime="7.20" overlapTraveltime="7.59" density="9.01" laneDensity="9.01" occupancy="4.28" waitingTime="0.00" timeLoss="1052.26" speed="12.47" speedRelative="0.90" departed="0" arrived="1461" entered="1468" left="0" laneChangedFrom="7" laneChangedTo="0"/>
        </edge>
        <edge id="-E2">
            <lane id="-E2_0" sampledSeconds="0.00" departed="0" arrived="0" entered="0" left="0" laneChangedFrom="0" laneChangedTo="0"/>
            <lane id="-E2_1" sampledSeconds="3224.38" traveltime="8.08" overlapTraveltime="8.48" density="2.65" laneDensity="2.65" occupancy="1.24" waitingTime="0.00" timeLoss="588.60" speed="11.16" speedRelative="0.80" departed="0" arrived="385" entered="385" left="0" laneChangedFrom="0" laneChangedTo="0"/>
            <lane id="-E2_2" sampledSeconds="3159.26" traveltime="7.26" overlapTraveltime="7.64" density="2.59" laneDensity="2.59" occupancy="1.24" waitingTime="0.00" timeLoss="327.59" speed="12.38" speedRelative="0.89" departed="0" arrived="418" entered="418" left="0" laneChangedFrom="0" laneChangedTo="0"/>
        </edge>
        <edge id="-E3">
            <lane id="-E3_0" sampledSeconds="0.00" departed="0" arrived="0" entered="0" left="0" laneChangedFrom="0" laneChangedTo="0"/>
            <lane id="-E3_1" sampledSeconds="2461.60" traveltime="8.01" overlapTraveltime="8.41" density="2.02" laneDensity="2.02" occupancy="0.94" waitingTime="0.00" timeLoss="454.13" speed="11.25" speedRelative="0.81" departed="0" arrived="299" entered="293" left="0" laneChangedFrom="0" laneChangedTo="6"/>
            <lane id="-E3_2" sampledSeconds="11263.99" traveltime="7.20" overlapTraveltime="7.59" density="9.24" laneDensity="9.24" occupancy="4.38" waitingTime="0.00" timeLoss="1063.24" speed="12.47" speedRelative="0.90" departed="0" arrived="1498" entered="1504" left="0" laneChangedFrom="6" laneChangedTo="0"/>
        </edge>
        <edge id="-E4">
            <lane id="-E4_0" sampledSeconds="0.00" departed="0" arrived="0" entered="0" left="0" laneChangedFrom="0" laneChangedTo="0"/>
            <lane id="-E4_1" sampledSeconds="3117.39" traveltime="8.05" overlapTraveltime="8.44" density="2.56" laneDensity="2.56" occupancy="1.19" waitingTime="0.00" timeLoss="577.51" speed="11.21" speedRelative="0.81" departed="0" arrived="373" entered="373" left="0" laneChangedFrom="0" laneChangedTo="0"/>
            <lane id="-E4_2" sampledSeconds="2914.68" traveltime="7.20" overlapTraveltime="7.59" density="2.39" laneDensity="2.39" occupancy="1.14" waitingTime="0.00" timeLoss="275.54" speed="12.47" speedRelative="0.90" departed="0" arrived="388" entered="388" left="0" laneChangedFrom="0" laneChangedTo="0"/>
        </edge>
        <edge id="E1">
            <lane id="E1_0" sampledSeconds="0.00" departed="0" arrived="0" entered="0" left="0" laneChangedFrom="0" laneChangedTo="0"/>
            <lane id="E1_1" sampledSeconds="88363.75" traveltime="97.31" overlapTraveltime="100.92" density="72.50" laneDensity="72.50" occupancy="36.22" waitingTime="55066.00" timeLoss="68490.33" speed="0.94" speedRelative="0.22" departed="1823" arrived="0" entered="0" left="385" laneChangedFrom="1453" laneChangedTo="15"/>
            <lane id="E1_2" sampledSeconds="136851.85" traveltime="165.70" overlapTraveltime="161.20" density="112.28" laneDensity="112.28" occupancy="55.96" waitingTime="97782.00" timeLoss="119026.73" speed="0.59" speedRelative="0.14" departed="0" arrived="0" entered="0" left="1438" laneChangedFrom="15" laneChangedTo="1453"/>
        </edge>
        <edge id="E2">
            <lane id="E2_0" sampledSeconds="0.00" departed="0" arrived="0" entered="0" left="0" laneChangedFrom="0" laneChangedTo="0"/>
            <lane id="E2_1" sampledSeconds="11590.33" traveltime="30.83" overlapTraveltime="32.06" density="9.51" laneDensity="9.51" occupancy="4.69" waitingTime="6219.00" timeLoss="9337.94" speed="2.95" speedRelative="0.18" departed="760" arrived="0" entered="0" left="293" laneChangedFrom="481" laneChangedTo="14"/>
            <lane id="E2_2" sampledSeconds="18336.20" traveltime="51.05" overlapTraveltime="51.31" density="15.04" laneDensity="15.04" occupancy="7.49" waitingTime="12923.00" timeLoss="16210.27" speed="1.84" speedRelative="0.11" departed="0" arrived="0" entered="0" left="467" laneChangedFrom="14" laneChangedTo="481"/>
        </edge>
        <edge id="E3">
            <lane id="E3_0" sampledSeconds="0.00" departed="0" arrived="0" entered="0" left="0" laneChangedFrom="0" laneChangedTo="0"/>
            <lane id="E3_1" sampledSeconds="88451.52" traveltime="99.90" overlapTraveltime="103.54" density="72.57" laneDensity="72.57" occupancy="36.26" waitingTime="66020.00" timeLoss="83324.64" speed="0.91" speedRelative="0.05" departed="1769" arrived="0" entered="0" left="373" laneChangedFrom="1422" laneChangedTo="26"/>
            <lane id="E3_2" sampledSeconds="127011.53" traveltime="159.36" overlapTraveltime="155.04" density="104.21" laneDensity="104.21" occupancy="51.93" waitingTime="89172.00" timeLoss="109851.53" speed="0.61" speedRelative="0.15" departed="0" arrived="0" entered="0" left="1396" laneChangedFrom="26" laneChangedTo="1422"/>
        </edge>
        <edge id="E4">
            <lane id="E4_0" sampledSeconds="0.00" departed="0" arrived="0" entered="0" left="0" laneChangedFrom="0" laneChangedTo="0"/>
            <lane id="E4_1" sampledSeconds="13334.74" traveltime="34.36" overlapTraveltime="35.59" density="10.94" laneDensity="10.94" occupancy="5.40" waitingTime="7626.00" timeLoss="10991.74" speed="2.66" speedRelative="0.16" departed="788" arrived="0" entered="0" left="311" laneChangedFrom="499" laneChangedTo="22"/>
            <lane id="E4_2" sampledSeconds="22229.29" traveltime="59.82" overlapTraveltime="59.95" density="18.24" laneDensity="18.24" occupancy="9.08" waitingTime="16209.00" timeLoss="20036.67" speed="1.58" speedRelative="0.09" departed="0" arrived="0" entered="0" left="477" laneChangedFrom="22" laneChangedTo="499"/>
        </edge>
    </interval>
</meandata>
