<?xml version="1.0" encoding="UTF-8"?>

<!-- generated on 2025-07-18 10:10:04 by Eclipse SUMO sumo Version 1.23.1
<sumoConfiguration xmlns:xsi="http://www.w3.org/2001/XMLSchema-instance" xsi:noNamespaceSchemaLocation="http://sumo.dlr.de/xsd/sumoConfiguration.xsd">

    <input>
        <net-file value="sumo_simulation/sumo_elements/test.net.xml"/>
        <route-files value="sumo_simulation/sumo_elements/test.rou.xml"/>
        <additional-files value="sumo_simulation/sumo_elements/test.add.xml"/>
    </input>

    <output>
        <tripinfo-output value="sumo_simulation/sumo_elements/metrics/20250718_101003_fixed_tripinfo_log.xml"/>
    </output>

    <report>
        <log value="sumo_simulation/sumo_elements/metrics/20250718_101003_fixed_metrics.log"/>
        <duration-log.statistics value="true"/>
    </report>

    <emissions>
        <device.emissions.probability value="1.0"/>
    </emissions>

    <traci_server>
        <remote-port value="60605"/>
    </traci_server>

</sumoConfiguration>
-->

<meandata xmlns:xsi="http://www.w3.org/2001/XMLSchema-instance" xsi:noNamespaceSchemaLocation="http://sumo.dlr.de/xsd/meandata_file.xsd">
    <interval begin="0.00" end="23067.00" id="01">
        <edge id="-E1">
            <lane id="-E1_0" sampledSeconds="0.00" departed="0" arrived="0" entered="0" left="0" laneChangedFrom="0" laneChangedTo="0"/>
            <lane id="-E1_1" sampledSeconds="2457.48" traveltime="8.02" overlapTraveltime="8.41" density="1.19" laneDensity="1.19" occupancy="0.56" waitingTime="0.00" timeLoss="442.17" speed="11.25" speedRelative="0.81" departed="0" arrived="300" entered="291" left="0" laneChangedFrom="0" laneChangedTo="9"/>
            <lane id="-E1_2" sampledSeconds="3672.77" traveltime="7.29" overlapTraveltime="7.68" density="1.78" laneDensity="1.78" occupancy="0.84" waitingTime="0.00" timeLoss="400.61" speed="12.32" speedRelative="0.89" departed="0" arrived="479" entered="488" left="0" laneChangedFrom="9" laneChangedTo="0"/>
        </edge>
        <edge id="-E2">
            <lane id="-E2_0" sampledSeconds="0.00" departed="0" arrived="0" entered="0" left="0" laneChangedFrom="0" laneChangedTo="0"/>
            <lane id="-E2_1" sampledSeconds="3360.56" traveltime="8.06" overlapTraveltime="8.46" density="1.63" laneDensity="1.63" occupancy="0.76" waitingTime="0.00" timeLoss="606.64" speed="11.18" speedRelative="0.81" departed="0" arrived="402" entered="402" left="0" laneChangedFrom="0" laneChangedTo="0"/>
            <lane id="-E2_2" sampledSeconds="2993.58" traveltime="7.16" overlapTraveltime="7.55" density="1.45" laneDensity="1.45" occupancy="0.69" waitingTime="0.00" timeLoss="278.92" speed="12.54" speedRelative="0.90" departed="0" arrived="401" entered="401" left="0" laneChangedFrom="0" laneChangedTo="0"/>
        </edge>
        <edge id="-E3">
            <lane id="-E3_0" sampledSeconds="0.00" departed="0" arrived="0" entered="0" left="0" laneChangedFrom="0" laneChangedTo="0"/>
            <lane id="-E3_1" sampledSeconds="2364.67" traveltime="8.01" overlapTraveltime="8.40" density="1.14" laneDensity="1.14" occupancy="0.53" waitingTime="0.00" timeLoss="435.59" speed="11.26" speedRelative="0.81" departed="0" arrived="287" entered="281" left="0" laneChangedFrom="0" laneChangedTo="6"/>
            <lane id="-E3_2" sampledSeconds="15115.32" traveltime="7.20" overlapTraveltime="7.59" density="7.31" laneDensity="7.31" occupancy="3.47" waitingTime="0.00" timeLoss="1422.04" speed="12.47" speedRelative="0.90" departed="0" arrived="2010" entered="2016" left="0" laneChangedFrom="6" laneChangedTo="0"/>
        </edge>
        <edge id="-E4">
            <lane id="-E4_0" sampledSeconds="0.00" departed="0" arrived="0" entered="0" left="0" laneChangedFrom="0" laneChangedTo="0"/>
            <lane id="-E4_1" sampledSeconds="1996.89" traveltime="7.97" overlapTraveltime="8.37" density="0.97" laneDensity="0.97" occupancy="0.45" waitingTime="0.00" timeLoss="355.14" speed="11.31" speedRelative="0.81" departed="0" arrived="241" entered="239" left="0" laneChangedFrom="0" laneChangedTo="2"/>
            <lane id="-E4_2" sampledSeconds="3982.28" traveltime="7.34" overlapTraveltime="7.73" density="1.93" laneDensity="1.93" occupancy="0.92" waitingTime="0.00" timeLoss="440.27" speed="12.24" speedRelative="0.88" departed="0" arrived="520" entered="522" left="0" laneChangedFrom="2" laneChangedTo="0"/>
        </edge>
        <edge id="E1">
            <lane id="E1_0" sampledSeconds="0.00" departed="0" arrived="0" entered="0" left="0" laneChangedFrom="0" laneChangedTo="0"/>
            <lane id="E1_1" sampledSeconds="154635.56" traveltime="121.88" overlapTraveltime="126.88" density="74.82" laneDensity="74.82" occupancy="37.41" waitingTime="107316.00" timeLoss="126893.06" speed="0.75" speedRelative="0.18" departed="2323" arrived="0" entered="0" left="402" laneChangedFrom="1930" laneChangedTo="9"/>
            <lane id="E1_2" sampledSeconds="244254.71" traveltime="261.39" overlapTraveltime="249.54" density="118.18" laneDensity="118.18" occupancy="58.92" waitingTime="192884.00" timeLoss="224023.80" speed="0.38" speedRelative="0.09" departed="0" arrived="0" entered="0" left="1921" laneChangedFrom="9" laneChangedTo="1930"/>
        </edge>
        <edge id="E2">
            <lane id="E2_0" sampledSeconds="0.00" departed="0" arrived="0" entered="0" left="0" laneChangedFrom="0" laneChangedTo="0"/>
            <lane id="E2_1" sampledSeconds="11366.20" traveltime="30.29" overlapTraveltime="31.54" density="5.50" laneDensity="5.50" occupancy="2.71" waitingTime="6039.00" timeLoss="9125.27" speed="3.00" speedRelative="0.18" departed="760" arrived="0" entered="0" left="281" laneChangedFrom="496" laneChangedTo="17"/>
            <lane id="E2_2" sampledSeconds="15830.69" traveltime="43.85" overlapTraveltime="44.16" density="7.66" laneDensity="7.66" occupancy="3.82" waitingTime="10772.00" timeLoss="13692.21" speed="2.14" speedRelative="0.13" departed="0" arrived="0" entered="0" left="479" laneChangedFrom="17" laneChangedTo="496"/>
        </edge>
        <edge id="E3">
            <lane id="E3_0" sampledSeconds="0.00" departed="0" arrived="0" entered="0" left="0" laneChangedFrom="0" laneChangedTo="0"/>
            <lane id="E3_1" sampledSeconds="12072.74" traveltime="32.81" overlapTraveltime="34.16" density="5.84" laneDensity="5.84" occupancy="2.89" waitingTime="6889.00" timeLoss="9902.67" speed="2.77" speedRelative="0.17" departed="769" arrived="0" entered="0" left="239" laneChangedFrom="534" laneChangedTo="4"/>
            <lane id="E3_2" sampledSeconds="23089.61" traveltime="61.45" overlapTraveltime="61.74" density="11.17" laneDensity="11.17" occupancy="5.55" waitingTime="11807.00" timeLoss="15069.11" speed="1.53" speedRelative="0.37" departed="0" arrived="0" entered="0" left="530" laneChangedFrom="4" laneChangedTo="534"/>
        </edge>
        <edge id="E4">
            <lane id="E4_0" sampledSeconds="0.00" departed="0" arrived="0" entered="0" left="0" laneChangedFrom="0" laneChangedTo="0"/>
            <lane id="E4_1" sampledSeconds="11219.49" traveltime="28.78" overlapTraveltime="30.00" density="5.43" laneDensity="5.43" occupancy="2.68" waitingTime="5694.00" timeLoss="8894.05" speed="3.15" speedRelative="0.19" departed="788" arrived="0" entered="0" left="291" laneChangedFrom="507" laneChangedTo="10"/>
            <lane id="E4_2" sampledSeconds="16471.84" traveltime="44.05" overlapTraveltime="44.35" density="7.97" laneDensity="7.97" occupancy="3.96" waitingTime="11119.00" timeLoss="14266.99" speed="2.13" speedRelative="0.13" departed="0" arrived="0" entered="0" left="497" laneChangedFrom="10" laneChangedTo="507"/>
        </edge>
    </interval>
</meandata>
