<?xml version="1.0" encoding="UTF-8"?>

<!-- generated on 2025-07-18 09:45:26 by Eclipse SUMO sumo Version 1.23.1
<sumoConfiguration xmlns:xsi="http://www.w3.org/2001/XMLSchema-instance" xsi:noNamespaceSchemaLocation="http://sumo.dlr.de/xsd/sumoConfiguration.xsd">

    <input>
        <net-file value="sumo_simulation/sumo_elements/test.net.xml"/>
        <route-files value="sumo_simulation/sumo_elements/test.rou.xml"/>
        <additional-files value="sumo_simulation/sumo_elements/test.add.xml"/>
    </input>

    <output>
        <tripinfo-output value="sumo_simulation/sumo_elements/metrics/20250718_094526_adaptive_tripinfo_log.xml"/>
    </output>

    <report>
        <log value="sumo_simulation/sumo_elements/metrics/20250718_094526_adaptive_metrics.log"/>
        <duration-log.statistics value="true"/>
    </report>

    <emissions>
        <device.emissions.probability value="1.0"/>
    </emissions>

    <traci_server>
        <remote-port value="60516"/>
    </traci_server>

</sumoConfiguration>
-->

<tripinfos xmlns:xsi="http://www.w3.org/2001/XMLSchema-instance" xsi:noNamespaceSchemaLocation="http://sumo.dlr.de/xsd/tripinfo_file.xsd">
    <tripinfo id="f_3.0" depart="17.00" departLane="E2_1" departPos="5.10" departSpeed="0.00" departDelay="0.00" arrival="36.00" arrivalLane="-E4_2" arrivalPos="89.60" arrivalSpeed="12.99" duration="19.00" routeLength="194.90" waitingTime="0.00" waitingCount="0" stopTime="0.00" timeLoss="4.46" rerouteNo="0" devices="tripinfo_f_3.0 emissions_f_3.0" vType="DEFAULT_VEHTYPE" speedFactor="0.96" vaporized="">
        <emissions CO_abs="364.574127" CO2_abs="65918.031918" HC_abs="2.424647" PMx_abs="5.361395" NOx_abs="21.696025" fuel_abs="21369.594967" electricity_abs="0"/>
    </tripinfo>
    <tripinfo id="f_3.1" depart="19.00" departLane="E2_1" departPos="5.10" departSpeed="0.00" departDelay="1.00" arrival="37.00" arrivalLane="-E4_2" arrivalPos="89.60" arrivalSpeed="14.70" duration="18.00" routeLength="194.90" waitingTime="0.00" waitingCount="0" stopTime="0.00" timeLoss="6.35" rerouteNo="0" devices="tripinfo_f_3.1 emissions_f_3.1" vType="DEFAULT_VEHTYPE" speedFactor="1.16" vaporized="">
        <emissions CO_abs="393.510580" CO2_abs="64761.021831" HC_abs="2.610873" PMx_abs="4.765694" NOx_abs="21.369349" fuel_abs="20994.468263" electricity_abs="0"/>
    </tripinfo>
    <tripinfo id="f_2.0" depart="20.00" departLane="E4_1" departPos="5.10" departSpeed="0.00" departDelay="0.00" arrival="38.00" arrivalLane="-E2_2" arrivalPos="89.60" arrivalSpeed="13.36" duration="18.00" routeLength="194.90" waitingTime="0.00" waitingCount="0" stopTime="0.00" timeLoss="4.50" rerouteNo="0" devices="tripinfo_f_2.0 emissions_f_2.0" vType="DEFAULT_VEHTYPE" speedFactor="1.00" vaporized="">
        <emissions CO_abs="431.580515" CO2_abs="70044.942902" HC_abs="2.866048" PMx_abs="5.646961" NOx_abs="23.411243" fuel_abs="22707.457452" electricity_abs="0"/>
    </tripinfo>
    <tripinfo id="f_0.0" depart="13.00" departLane="E1_1" departPos="5.10" departSpeed="0.00" departDelay="0.00" arrival="48.00" arrivalLane="-E3_2" arrivalPos="89.60" arrivalSpeed="13.62" duration="35.00" routeLength="194.90" waitingTime="0.00" waitingCount="0" stopTime="0.00" timeLoss="6.75" rerouteNo="0" devices="tripinfo_f_0.0 emissions_f_0.0" vType="DEFAULT_VEHTYPE" speedFactor="1.00" vaporized="">
        <emissions CO_abs="260.447279" CO2_abs="74546.465195" HC_abs="1.726366" PMx_abs="4.758456" NOx_abs="24.210840" fuel_abs="24166.845095" electricity_abs="0"/>
    </tripinfo>
    <tripinfo id="f_7.1" depart="32.00" departLane="E3_1" departPos="5.10" departSpeed="0.00" departDelay="2.00" arrival="54.00" arrivalLane="-E4_2" arrivalPos="89.60" arrivalSpeed="13.44" duration="22.00" routeLength="188.29" waitingTime="0.00" waitingCount="0" stopTime="0.00" timeLoss="7.37" rerouteNo="0" devices="tripinfo_f_7.1 emissions_f_7.1" vType="DEFAULT_VEHTYPE" speedFactor="1.01" vaporized="">
        <emissions CO_abs="419.630224" CO2_abs="80504.342944" HC_abs="2.771026" PMx_abs="4.750026" NOx_abs="25.561672" fuel_abs="26098.165109" electricity_abs="0"/>
    </tripinfo>
    <tripinfo id="f_1.0" depart="30.00" departLane="E3_1" departPos="5.10" departSpeed="0.00" departDelay="0.00" arrival="60.00" arrivalLane="-E1_2" arrivalPos="89.60" arrivalSpeed="14.64" duration="30.00" routeLength="194.90" waitingTime="0.00" waitingCount="0" stopTime="0.00" timeLoss="5.97" rerouteNo="0" devices="tripinfo_f_1.0 emissions_f_1.0" vType="DEFAULT_VEHTYPE" speedFactor="1.12" vaporized="">
        <emissions CO_abs="314.626455" CO2_abs="76346.390265" HC_abs="2.085601" PMx_abs="4.923000" NOx_abs="25.171045" fuel_abs="24750.365296" electricity_abs="0"/>
    </tripinfo>
    <tripinfo id="f_0.1" depart="20.00" departLane="E1_1" departPos="5.10" departSpeed="0.00" departDelay="0.00" arrival="63.00" arrivalLane="-E3_2" arrivalPos="89.60" arrivalSpeed="10.42" duration="43.00" routeLength="194.90" waitingTime="0.00" waitingCount="0" stopTime="0.00" timeLoss="8.96" rerouteNo="0" devices="tripinfo_f_0.1 emissions_f_0.1" vType="DEFAULT_VEHTYPE" speedFactor="0.84" vaporized="">
        <emissions CO_abs="182.631519" CO2_abs="77353.790690" HC_abs="1.210609" PMx_abs="4.175381" NOx_abs="24.758177" fuel_abs="25076.932188" electricity_abs="0"/>
    </tripinfo>
    <tripinfo id="f_1.1" depart="35.00" departLane="E3_1" departPos="5.10" departSpeed="0.00" departDelay="4.00" arrival="70.00" arrivalLane="-E1_2" arrivalPos="89.60" arrivalSpeed="13.69" duration="35.00" routeLength="194.90" waitingTime="0.00" waitingCount="0" stopTime="0.00" timeLoss="7.52" rerouteNo="0" devices="tripinfo_f_1.1 emissions_f_1.1" vType="DEFAULT_VEHTYPE" speedFactor="1.01" vaporized="">
        <emissions CO_abs="267.696901" CO2_abs="78180.851029" HC_abs="1.780339" PMx_abs="5.247464" NOx_abs="25.548182" fuel_abs="25345.079738" electricity_abs="0"/>
    </tripinfo>
    <tripinfo id="f_1.2" depart="40.00" departLane="E3_1" departPos="5.10" departSpeed="0.00" departDelay="0.00" arrival="73.00" arrivalLane="-E1_2" arrivalPos="89.60" arrivalSpeed="14.57" duration="33.00" routeLength="194.90" waitingTime="0.00" waitingCount="0" stopTime="0.00" timeLoss="8.67" rerouteNo="0" devices="tripinfo_f_1.2 emissions_f_1.2" vType="DEFAULT_VEHTYPE" speedFactor="1.14" vaporized="">
        <emissions CO_abs="333.552201" CO2_abs="76362.719856" HC_abs="2.209240" PMx_abs="4.937313" NOx_abs="24.988540" fuel_abs="24755.613208" electricity_abs="0"/>
    </tripinfo>
    <tripinfo id="f_4.0" depart="2.00" departLane="E2_1" departPos="5.10" departSpeed="0.00" departDelay="0.00" arrival="79.00" arrivalLane="-E3_1" arrivalPos="89.60" arrivalSpeed="14.26" duration="77.00" routeLength="183.13" waitingTime="55.00" waitingCount="1" stopTime="0.00" timeLoss="64.93" rerouteNo="0" devices="tripinfo_f_4.0 emissions_f_4.0" vType="DEFAULT_VEHTYPE" speedFactor="1.05" vaporized="">
        <emissions CO_abs="477.458575" CO2_abs="172432.896922" HC_abs="3.159106" PMx_abs="5.173858" NOx_abs="61.729928" fuel_abs="55900.781275" electricity_abs="0"/>
    </tripinfo>
    <tripinfo id="f_6.0" depart="7.00" departLane="E4_1" departPos="5.10" departSpeed="0.00" departDelay="0.00" arrival="80.00" arrivalLane="-E1_1" arrivalPos="89.60" arrivalSpeed="13.75" duration="73.00" routeLength="183.13" waitingTime="50.00" waitingCount="1" stopTime="0.00" timeLoss="59.75" rerouteNo="0" devices="tripinfo_f_6.0 emissions_f_6.0" vType="DEFAULT_VEHTYPE" speedFactor="1.02" vaporized="">
        <emissions CO_abs="477.116537" CO2_abs="166484.764108" HC_abs="3.156162" PMx_abs="5.545532" NOx_abs="59.695701" fuel_abs="53972.410581" electricity_abs="0"/>
    </tripinfo>
    <tripinfo id="f_7.0" depart="12.00" departLane="E3_1" departPos="5.10" departSpeed="0.00" departDelay="0.00" arrival="80.00" arrivalLane="-E4_1" arrivalPos="89.60" arrivalSpeed="13.53" duration="68.00" routeLength="183.13" waitingTime="45.00" waitingCount="1" stopTime="0.00" timeLoss="55.40" rerouteNo="0" devices="tripinfo_f_7.0 emissions_f_7.0" vType="DEFAULT_VEHTYPE" speedFactor="1.01" vaporized="">
        <emissions CO_abs="509.280591" CO2_abs="160455.774395" HC_abs="3.365424" PMx_abs="5.110094" NOx_abs="56.681194" fuel_abs="52017.800603" electricity_abs="0"/>
    </tripinfo>
    <tripinfo id="f_4.1" depart="42.00" departLane="E2_1" departPos="5.10" departSpeed="0.00" departDelay="0.00" arrival="84.00" arrivalLane="-E3_1" arrivalPos="89.60" arrivalSpeed="12.62" duration="42.00" routeLength="183.13" waitingTime="17.00" waitingCount="1" stopTime="0.00" timeLoss="28.42" rerouteNo="0" devices="tripinfo_f_4.1 emissions_f_4.1" vType="DEFAULT_VEHTYPE" speedFactor="0.98" vaporized="">
        <emissions CO_abs="374.583504" CO2_abs="110868.536839" HC_abs="2.476970" PMx_abs="4.728107" NOx_abs="36.988250" fuel_abs="35941.956851" electricity_abs="0"/>
    </tripinfo>
    <tripinfo id="f_5.0" depart="54.00" departLane="E1_1" departPos="5.10" departSpeed="0.00" departDelay="0.00" arrival="86.00" arrivalLane="-E2_1" arrivalPos="89.60" arrivalSpeed="13.82" duration="32.00" routeLength="183.13" waitingTime="0.00" waitingCount="0" stopTime="0.00" timeLoss="5.80" rerouteNo="0" devices="tripinfo_f_5.0 emissions_f_5.0" vType="DEFAULT_VEHTYPE" speedFactor="1.07" vaporized="">
        <emissions CO_abs="282.657407" CO2_abs="75461.042044" HC_abs="1.872353" PMx_abs="4.480485" NOx_abs="24.464539" fuel_abs="24463.311970" electricity_abs="0"/>
    </tripinfo>
    <tripinfo id="f_4.2" depart="66.00" departLane="E2_1" departPos="5.10" departSpeed="0.00" departDelay="0.00" arrival="86.00" arrivalLane="-E3_1" arrivalPos="89.60" arrivalSpeed="14.39" duration="20.00" routeLength="183.13" waitingTime="0.00" waitingCount="0" stopTime="0.00" timeLoss="7.16" rerouteNo="0" devices="tripinfo_f_4.2 emissions_f_4.2" vType="DEFAULT_VEHTYPE" speedFactor="1.06" vaporized="">
        <emissions CO_abs="433.643557" CO2_abs="76720.573691" HC_abs="2.870975" PMx_abs="4.970275" NOx_abs="24.460425" fuel_abs="24871.531902" electricity_abs="0"/>
    </tripinfo>
    <tripinfo id="f_6.1" depart="49.00" departLane="E4_1" departPos="5.10" departSpeed="0.00" departDelay="0.00" arrival="87.00" arrivalLane="-E1_1" arrivalPos="89.60" arrivalSpeed="9.00" duration="38.00" routeLength="183.13" waitingTime="10.00" waitingCount="1" stopTime="0.00" timeLoss="18.97" rerouteNo="0" devices="tripinfo_f_6.1 emissions_f_6.1" vType="DEFAULT_VEHTYPE" speedFactor="0.72" vaporized="">
        <emissions CO_abs="239.772261" CO2_abs="90505.112189" HC_abs="1.589193" PMx_abs="4.774880" NOx_abs="29.949205" fuel_abs="29340.451776" electricity_abs="0"/>
    </tripinfo>
    <tripinfo id="f_6.2" depart="70.00" departLane="E4_1" departPos="5.10" departSpeed="0.00" departDelay="1.00" arrival="90.00" arrivalLane="-E1_1" arrivalPos="89.60" arrivalSpeed="12.72" duration="20.00" routeLength="183.13" waitingTime="0.00" waitingCount="0" stopTime="0.00" timeLoss="6.31" rerouteNo="0" devices="tripinfo_f_6.2 emissions_f_6.2" vType="DEFAULT_VEHTYPE" speedFactor="0.93" vaporized="">
        <emissions CO_abs="432.716033" CO2_abs="78976.903180" HC_abs="2.863621" PMx_abs="5.351347" NOx_abs="25.449570" fuel_abs="25603.031302" electricity_abs="0"/>
    </tripinfo>
    <tripinfo id="f_7.2" depart="72.00" departLane="E3_1" departPos="5.10" departSpeed="0.00" departDelay="0.00" arrival="92.00" arrivalLane="-E4_1" arrivalPos="89.60" arrivalSpeed="14.10" duration="20.00" routeLength="183.13" waitingTime="0.00" waitingCount="0" stopTime="0.00" timeLoss="7.41" rerouteNo="0" devices="tripinfo_f_7.2 emissions_f_7.2" vType="DEFAULT_VEHTYPE" speedFactor="1.06" vaporized="">
        <emissions CO_abs="531.532069" CO2_abs="84839.727132" HC_abs="3.514421" PMx_abs="5.242871" NOx_abs="27.765337" fuel_abs="27503.625715" electricity_abs="0"/>
    </tripinfo>
    <tripinfo id="f_4.3" depart="77.00" departLane="E2_1" departPos="5.10" departSpeed="0.00" departDelay="0.00" arrival="97.00" arrivalLane="-E3_1" arrivalPos="89.60" arrivalSpeed="12.78" duration="20.00" routeLength="183.13" waitingTime="0.00" waitingCount="0" stopTime="0.00" timeLoss="6.25" rerouteNo="0" devices="tripinfo_f_4.3 emissions_f_4.3" vType="DEFAULT_VEHTYPE" speedFactor="0.93" vaporized="">
        <emissions CO_abs="437.317352" CO2_abs="78317.460472" HC_abs="2.893107" PMx_abs="4.987381" NOx_abs="25.155575" fuel_abs="25389.228973" electricity_abs="0"/>
    </tripinfo>
    <tripinfo id="f_7.3" depart="76.00" departLane="E3_1" departPos="5.10" departSpeed="0.00" departDelay="0.00" arrival="98.00" arrivalLane="-E4_1" arrivalPos="89.60" arrivalSpeed="12.20" duration="22.00" routeLength="183.13" waitingTime="0.00" waitingCount="0" stopTime="0.00" timeLoss="6.56" rerouteNo="0" devices="tripinfo_f_7.3 emissions_f_7.3" vType="DEFAULT_VEHTYPE" speedFactor="0.88" vaporized="">
        <emissions CO_abs="424.757467" CO2_abs="79622.288486" HC_abs="2.809005" PMx_abs="4.942635" NOx_abs="25.499246" fuel_abs="25812.232949" electricity_abs="0"/>
    </tripinfo>
    <tripinfo id="f_4.4" depart="82.00" departLane="E2_1" departPos="5.10" departSpeed="0.00" departDelay="1.00" arrival="102.00" arrivalLane="-E3_1" arrivalPos="89.60" arrivalSpeed="12.28" duration="20.00" routeLength="183.13" waitingTime="0.00" waitingCount="0" stopTime="0.00" timeLoss="6.12" rerouteNo="0" devices="tripinfo_f_4.4 emissions_f_4.4" vType="DEFAULT_VEHTYPE" speedFactor="0.94" vaporized="">
        <emissions CO_abs="441.231743" CO2_abs="77823.038342" HC_abs="2.918514" PMx_abs="4.915860" NOx_abs="25.128043" fuel_abs="25228.942810" electricity_abs="0"/>
    </tripinfo>
    <tripinfo id="f_6.3" depart="86.00" departLane="E4_1" departPos="5.10" departSpeed="0.00" departDelay="0.00" arrival="105.00" arrivalLane="-E1_1" arrivalPos="89.60" arrivalSpeed="14.07" duration="19.00" routeLength="183.13" waitingTime="0.00" waitingCount="0" stopTime="0.00" timeLoss="6.37" rerouteNo="0" devices="tripinfo_f_6.3 emissions_f_6.3" vType="DEFAULT_VEHTYPE" speedFactor="1.05" vaporized="">
        <emissions CO_abs="518.093627" CO2_abs="85276.240171" HC_abs="3.430186" PMx_abs="5.538848" NOx_abs="27.517562" fuel_abs="27645.126466" electricity_abs="0"/>
    </tripinfo>
    <tripinfo id="f_4.5" depart="89.00" departLane="E2_1" departPos="5.10" departSpeed="0.00" departDelay="0.00" arrival="111.00" arrivalLane="-E3_1" arrivalPos="89.60" arrivalSpeed="10.69" duration="22.00" routeLength="183.13" waitingTime="0.00" waitingCount="0" stopTime="0.00" timeLoss="6.49" rerouteNo="0" devices="tripinfo_f_4.5 emissions_f_4.5" vType="DEFAULT_VEHTYPE" speedFactor="0.84" vaporized="">
        <emissions CO_abs="339.428380" CO2_abs="71999.981336" HC_abs="2.244804" PMx_abs="4.399068" NOx_abs="22.524681" fuel_abs="23341.198085" electricity_abs="0"/>
    </tripinfo>
    <tripinfo id="f_3.2" depart="21.00" departLane="E2_1" departPos="5.10" departSpeed="0.00" departDelay="1.00" arrival="116.00" arrivalLane="-E4_2" arrivalPos="89.60" arrivalSpeed="11.57" duration="95.00" routeLength="194.90" waitingTime="69.00" waitingCount="1" stopTime="0.00" timeLoss="80.28" rerouteNo="0" devices="tripinfo_f_3.2 emissions_f_3.2" vType="DEFAULT_VEHTYPE" speedFactor="0.91" vaporized="">
        <emissions CO_abs="415.371715" CO2_abs="192235.768475" HC_abs="2.748735" PMx_abs="5.138208" NOx_abs="69.716565" fuel_abs="62320.814709" electricity_abs="0"/>
    </tripinfo>
    <tripinfo id="f_2.1" depart="23.00" departLane="E4_1" departPos="5.10" departSpeed="0.00" departDelay="0.00" arrival="116.00" arrivalLane="-E2_2" arrivalPos="89.60" arrivalSpeed="13.64" duration="93.00" routeLength="194.90" waitingTime="69.00" waitingCount="1" stopTime="0.00" timeLoss="79.63" rerouteNo="0" devices="tripinfo_f_2.1 emissions_f_2.1" vType="DEFAULT_VEHTYPE" speedFactor="1.03" vaporized="">
        <emissions CO_abs="510.935865" CO2_abs="199564.395788" HC_abs="3.384500" PMx_abs="5.984931" NOx_abs="72.894836" fuel_abs="64696.609197" electricity_abs="0"/>
    </tripinfo>
    <tripinfo id="f_2.2" depart="47.00" departLane="E4_1" departPos="5.10" departSpeed="0.00" departDelay="0.00" arrival="117.00" arrivalLane="-E2_2" arrivalPos="89.60" arrivalSpeed="14.96" duration="70.00" routeLength="194.90" waitingTime="47.00" waitingCount="1" stopTime="0.00" timeLoss="58.32" rerouteNo="0" devices="tripinfo_f_2.2 emissions_f_2.2" vType="DEFAULT_VEHTYPE" speedFactor="1.13" vaporized="">
        <emissions CO_abs="581.776926" CO2_abs="167869.568813" HC_abs="3.842323" PMx_abs="5.205100" NOx_abs="60.009032" fuel_abs="54421.211441" electricity_abs="0"/>
    </tripinfo>
    <tripinfo id="f_3.3" depart="39.00" departLane="E2_1" departPos="5.10" departSpeed="0.00" departDelay="0.00" arrival="118.00" arrivalLane="-E4_2" arrivalPos="89.60" arrivalSpeed="13.27" duration="79.00" routeLength="194.90" waitingTime="55.00" waitingCount="1" stopTime="0.00" timeLoss="64.76" rerouteNo="0" devices="tripinfo_f_3.3 emissions_f_3.3" vType="DEFAULT_VEHTYPE" speedFactor="0.96" vaporized="">
        <emissions CO_abs="470.823074" CO2_abs="171072.391179" HC_abs="3.110499" PMx_abs="4.826812" NOx_abs="61.131009" fuel_abs="55459.705919" electricity_abs="0"/>
    </tripinfo>
    <tripinfo id="f_3.4" depart="49.00" departLane="E2_1" departPos="5.10" departSpeed="0.00" departDelay="0.00" arrival="119.00" arrivalLane="-E4_2" arrivalPos="89.60" arrivalSpeed="13.84" duration="70.00" routeLength="194.90" waitingTime="46.00" waitingCount="1" stopTime="0.00" timeLoss="57.19" rerouteNo="0" devices="tripinfo_f_3.4 emissions_f_3.4" vType="DEFAULT_VEHTYPE" speedFactor="1.02" vaporized="">
        <emissions CO_abs="413.290157" CO2_abs="156828.443682" HC_abs="2.736351" PMx_abs="5.578859" NOx_abs="55.942795" fuel_abs="50841.936560" electricity_abs="0"/>
    </tripinfo>
    <tripinfo id="f_2.3" depart="68.00" departLane="E4_1" departPos="5.10" departSpeed="0.00" departDelay="0.00" arrival="119.00" arrivalLane="-E2_2" arrivalPos="89.60" arrivalSpeed="15.56" duration="51.00" routeLength="194.90" waitingTime="27.00" waitingCount="1" stopTime="0.00" timeLoss="39.18" rerouteNo="0" devices="tripinfo_f_2.3 emissions_f_2.3" vType="DEFAULT_VEHTYPE" speedFactor="1.14" vaporized="">
        <emissions CO_abs="555.727917" CO2_abs="137538.727607" HC_abs="3.677373" PMx_abs="5.785796" NOx_abs="47.374446" fuel_abs="44588.175104" electricity_abs="0"/>
    </tripinfo>
    <tripinfo id="f_3.5" depart="61.00" departLane="E2_1" departPos="5.10" departSpeed="0.00" departDelay="0.00" arrival="121.00" arrivalLane="-E4_2" arrivalPos="89.60" arrivalSpeed="14.01" duration="60.00" routeLength="194.90" waitingTime="36.00" waitingCount="1" stopTime="0.00" timeLoss="47.59" rerouteNo="0" devices="tripinfo_f_3.5 emissions_f_3.5" vType="DEFAULT_VEHTYPE" speedFactor="1.07" vaporized="">
        <emissions CO_abs="426.100640" CO2_abs="141126.432400" HC_abs="2.821143" PMx_abs="5.222510" NOx_abs="49.669916" fuel_abs="45751.411280" electricity_abs="0"/>
    </tripinfo>
    <tripinfo id="f_2.4" depart="89.00" departLane="E4_1" departPos="5.10" departSpeed="0.00" departDelay="0.00" arrival="122.00" arrivalLane="-E2_2" arrivalPos="89.60" arrivalSpeed="11.43" duration="33.00" routeLength="194.90" waitingTime="8.00" waitingCount="1" stopTime="0.00" timeLoss="18.39" rerouteNo="0" devices="tripinfo_f_2.4 emissions_f_2.4" vType="DEFAULT_VEHTYPE" speedFactor="0.91" vaporized="">
        <emissions CO_abs="369.901029" CO2_abs="91840.809803" HC_abs="2.444517" PMx_abs="4.343151" NOx_abs="29.967831" fuel_abs="29773.324236" electricity_abs="0"/>
    </tripinfo>
    <tripinfo id="f_3.6" depart="81.00" departLane="E2_1" departPos="5.10" departSpeed="0.00" departDelay="0.00" arrival="125.00" arrivalLane="-E4_2" arrivalPos="89.60" arrivalSpeed="10.81" duration="44.00" routeLength="194.90" waitingTime="17.00" waitingCount="1" stopTime="0.00" timeLoss="27.61" rerouteNo="0" devices="tripinfo_f_3.6 emissions_f_3.6" vType="DEFAULT_VEHTYPE" speedFactor="0.81" vaporized="">
        <emissions CO_abs="282.221474" CO2_abs="103779.802435" HC_abs="1.867245" PMx_abs="5.036280" NOx_abs="34.813533" fuel_abs="33644.038854" electricity_abs="0"/>
    </tripinfo>
    <tripinfo id="f_2.5" depart="110.00" departLane="E4_1" departPos="5.10" departSpeed="0.00" departDelay="0.00" arrival="128.00" arrivalLane="-E2_2" arrivalPos="89.60" arrivalSpeed="12.78" duration="18.00" routeLength="194.90" waitingTime="0.00" waitingCount="0" stopTime="0.00" timeLoss="4.48" rerouteNo="0" devices="tripinfo_f_2.5 emissions_f_2.5" vType="DEFAULT_VEHTYPE" speedFactor="0.98" vaporized="">
        <emissions CO_abs="399.322393" CO2_abs="67278.099766" HC_abs="2.648205" PMx_abs="5.518116" NOx_abs="22.392351" fuel_abs="21810.500353" electricity_abs="0"/>
    </tripinfo>
    <tripinfo id="f_3.7" depart="114.00" departLane="E2_1" departPos="5.10" departSpeed="0.00" departDelay="0.00" arrival="131.00" arrivalLane="-E4_2" arrivalPos="89.60" arrivalSpeed="14.68" duration="17.00" routeLength="194.90" waitingTime="0.00" waitingCount="0" stopTime="0.00" timeLoss="5.18" rerouteNo="0" devices="tripinfo_f_3.7 emissions_f_3.7" vType="DEFAULT_VEHTYPE" speedFactor="1.15" vaporized="">
        <emissions CO_abs="449.147016" CO2_abs="67712.927090" HC_abs="2.983331" PMx_abs="5.195216" NOx_abs="22.635173" fuel_abs="21951.417830" electricity_abs="0"/>
    </tripinfo>
    <tripinfo id="f_3.8" depart="118.00" departLane="E2_1" departPos="5.10" departSpeed="0.00" departDelay="0.00" arrival="135.00" arrivalLane="-E4_2" arrivalPos="89.60" arrivalSpeed="14.61" duration="17.00" routeLength="194.90" waitingTime="0.00" waitingCount="0" stopTime="0.00" timeLoss="4.58" rerouteNo="0" devices="tripinfo_f_3.8 emissions_f_3.8" vType="DEFAULT_VEHTYPE" speedFactor="1.06" vaporized="">
        <emissions CO_abs="452.857527" CO2_abs="67777.346290" HC_abs="3.000956" PMx_abs="4.757006" NOx_abs="22.508074" fuel_abs="21972.282019" electricity_abs="0"/>
    </tripinfo>
    <tripinfo id="f_3.9" depart="123.00" departLane="E2_1" departPos="5.10" departSpeed="0.00" departDelay="0.00" arrival="141.00" arrivalLane="-E4_2" arrivalPos="89.60" arrivalSpeed="13.58" duration="18.00" routeLength="194.90" waitingTime="0.00" waitingCount="0" stopTime="0.00" timeLoss="4.37" rerouteNo="0" devices="tripinfo_f_3.9 emissions_f_3.9" vType="DEFAULT_VEHTYPE" speedFactor="1.00" vaporized="">
        <emissions CO_abs="411.152033" CO2_abs="67728.691985" HC_abs="2.731413" PMx_abs="5.312294" NOx_abs="22.413634" fuel_abs="21956.555475" electricity_abs="0"/>
    </tripinfo>
    <tripinfo id="f_6.5" depart="122.00" departLane="E4_1" departPos="5.10" departSpeed="0.00" departDelay="0.00" arrival="143.00" arrivalLane="-E1_2" arrivalPos="89.60" arrivalSpeed="13.20" duration="21.00" routeLength="188.29" waitingTime="0.00" waitingCount="0" stopTime="0.00" timeLoss="7.43" rerouteNo="0" devices="tripinfo_f_6.5 emissions_f_6.5" vType="DEFAULT_VEHTYPE" speedFactor="1.00" vaporized="">
        <emissions CO_abs="447.348137" CO2_abs="82006.039504" HC_abs="2.958024" PMx_abs="4.918641" NOx_abs="25.914977" fuel_abs="26584.971261" electricity_abs="0"/>
    </tripinfo>
    <tripinfo id="f_1.3" depart="69.00" departLane="E3_1" departPos="5.10" departSpeed="0.00" departDelay="0.00" arrival="150.00" arrivalLane="-E1_2" arrivalPos="89.60" arrivalSpeed="13.65" duration="81.00" routeLength="194.90" waitingTime="46.00" waitingCount="1" stopTime="0.00" timeLoss="55.93" rerouteNo="0" devices="tripinfo_f_1.3 emissions_f_1.3" vType="DEFAULT_VEHTYPE" speedFactor="1.07" vaporized="">
        <emissions CO_abs="269.247236" CO2_abs="149615.181213" HC_abs="1.781553" PMx_abs="4.623022" NOx_abs="53.636375" fuel_abs="48503.628833" electricity_abs="0"/>
    </tripinfo>
    <tripinfo id="f_0.2" depart="106.00" departLane="E1_1" departPos="5.10" departSpeed="0.00" departDelay="0.00" arrival="151.00" arrivalLane="-E3_2" arrivalPos="89.60" arrivalSpeed="13.35" duration="45.00" routeLength="194.90" waitingTime="7.00" waitingCount="1" stopTime="0.00" timeLoss="17.51" rerouteNo="0" devices="tripinfo_f_0.2 emissions_f_0.2" vType="DEFAULT_VEHTYPE" speedFactor="1.04" vaporized="">
        <emissions CO_abs="284.732298" CO2_abs="97435.193038" HC_abs="1.885306" PMx_abs="4.935118" NOx_abs="32.202817" fuel_abs="31587.102460" electricity_abs="0"/>
    </tripinfo>
    <tripinfo id="f_1.4" depart="89.00" departLane="E3_1" departPos="5.10" departSpeed="0.00" departDelay="0.00" arrival="155.00" arrivalLane="-E1_2" arrivalPos="89.60" arrivalSpeed="11.17" duration="66.00" routeLength="194.90" waitingTime="25.00" waitingCount="1" stopTime="0.00" timeLoss="35.05" rerouteNo="0" devices="tripinfo_f_1.4 emissions_f_1.4" vType="DEFAULT_VEHTYPE" speedFactor="0.88" vaporized="">
        <emissions CO_abs="193.077064" CO2_abs="119026.824474" HC_abs="1.278370" PMx_abs="4.234506" NOx_abs="41.685767" fuel_abs="38587.137297" electricity_abs="0"/>
    </tripinfo>
    <tripinfo id="f_5.2" depart="116.00" departLane="E1_1" departPos="5.10" departSpeed="0.00" departDelay="0.00" arrival="156.00" arrivalLane="-E2_2" arrivalPos="89.60" arrivalSpeed="12.17" duration="40.00" routeLength="188.29" waitingTime="0.00" waitingCount="0" stopTime="0.00" timeLoss="9.58" rerouteNo="0" devices="tripinfo_f_5.2 emissions_f_5.2" vType="DEFAULT_VEHTYPE" speedFactor="0.96" vaporized="">
        <emissions CO_abs="225.964611" CO2_abs="79575.296971" HC_abs="1.499086" PMx_abs="4.524813" NOx_abs="25.422722" fuel_abs="25797.084410" electricity_abs="0"/>
    </tripinfo>
    <personinfo id="pf_3.0" depart="14.00" type="DEFAULT_PEDTYPE" speedFactor="0.94" duration="143.00" waitingTime="0.00" timeLoss="23.83" traveltime="143.00">
        <walk depart="14.00" departPos="0.00" arrival="157.00" arrivalPos="44.80" duration="143.00" routeLength="155.69" timeLoss="23.83" maxSpeed="1.31"/>
    </personinfo>
    <tripinfo id="f_1.6" depart="105.00" departLane="E3_1" departPos="5.10" departSpeed="0.00" departDelay="0.00" arrival="157.00" arrivalLane="-E1_2" arrivalPos="89.60" arrivalSpeed="14.24" duration="52.00" routeLength="194.90" waitingTime="21.00" waitingCount="1" stopTime="0.00" timeLoss="30.78" rerouteNo="0" devices="tripinfo_f_1.6 emissions_f_1.6" vType="DEFAULT_VEHTYPE" speedFactor="1.06" vaporized="">
        <emissions CO_abs="404.514286" CO2_abs="127173.797842" HC_abs="2.680955" PMx_abs="5.669799" NOx_abs="43.197645" fuel_abs="41227.971692" electricity_abs="0"/>
    </tripinfo>
    <tripinfo id="f_1.5" depart="103.00" departLane="E3_1" departPos="5.10" departSpeed="0.00" departDelay="0.00" arrival="161.00" arrivalLane="-E1_2" arrivalPos="89.60" arrivalSpeed="13.48" duration="58.00" routeLength="194.90" waitingTime="20.00" waitingCount="1" stopTime="0.00" timeLoss="29.94" rerouteNo="0" devices="tripinfo_f_1.5 emissions_f_1.5" vType="DEFAULT_VEHTYPE" speedFactor="0.99" vaporized="">
        <emissions CO_abs="266.238590" CO2_abs="113615.760408" HC_abs="1.765790" PMx_abs="4.766134" NOx_abs="38.963448" fuel_abs="36832.790734" electricity_abs="0"/>
    </tripinfo>
    <tripinfo id="f_1.7" depart="117.00" departLane="E3_1" departPos="5.10" departSpeed="0.00" departDelay="0.00" arrival="164.00" arrivalLane="-E1_2" arrivalPos="89.60" arrivalSpeed="14.23" duration="47.00" routeLength="194.90" waitingTime="9.00" waitingCount="1" stopTime="0.00" timeLoss="21.01" rerouteNo="0" devices="tripinfo_f_1.7 emissions_f_1.7" vType="DEFAULT_VEHTYPE" speedFactor="1.06" vaporized="">
        <emissions CO_abs="303.594982" CO2_abs="99222.893296" HC_abs="2.014362" PMx_abs="5.007101" NOx_abs="34.101698" fuel_abs="32166.691981" electricity_abs="0"/>
    </tripinfo>
    <tripinfo id="f_5.3" depart="126.00" departLane="E1_1" departPos="5.10" departSpeed="0.00" departDelay="0.00" arrival="164.00" arrivalLane="-E2_2" arrivalPos="89.60" arrivalSpeed="14.17" duration="38.00" routeLength="188.29" waitingTime="2.00" waitingCount="1" stopTime="0.00" timeLoss="11.33" rerouteNo="0" devices="tripinfo_f_5.3 emissions_f_5.3" vType="DEFAULT_VEHTYPE" speedFactor="1.09" vaporized="">
        <emissions CO_abs="315.730798" CO2_abs="87436.381737" HC_abs="2.086176" PMx_abs="4.725646" NOx_abs="28.197839" fuel_abs="28345.498581" electricity_abs="0"/>
    </tripinfo>
    <personinfo id="pf_0.0" depart="10.00" type="DEFAULT_PEDTYPE" speedFactor="1.20" duration="171.00" waitingTime="0.00" timeLoss="77.62" traveltime="171.00">
        <walk depart="10.00" departPos="0.00" arrival="181.00" arrivalPos="44.80" duration="171.00" routeLength="155.69" timeLoss="77.62" maxSpeed="1.67"/>
    </personinfo>
    <personinfo id="pf_0.2" depart="31.00" type="DEFAULT_PEDTYPE" speedFactor="1.12" duration="152.00" waitingTime="0.00" timeLoss="52.18" traveltime="152.00">
        <walk depart="31.00" departPos="0.00" arrival="183.00" arrivalPos="44.80" duration="152.00" routeLength="155.69" timeLoss="52.18" maxSpeed="1.56"/>
    </personinfo>
    <tripinfo id="f_6.4" depart="91.00" departLane="E4_1" departPos="5.10" departSpeed="0.00" departDelay="0.00" arrival="185.00" arrivalLane="-E1_1" arrivalPos="89.60" arrivalSpeed="13.62" duration="94.00" routeLength="183.13" waitingTime="71.00" waitingCount="1" stopTime="0.00" timeLoss="81.26" rerouteNo="0" devices="tripinfo_f_6.4 emissions_f_6.4" vType="DEFAULT_VEHTYPE" speedFactor="1.03" vaporized="">
        <emissions CO_abs="505.020919" CO2_abs="200114.052658" HC_abs="3.335177" PMx_abs="5.257829" NOx_abs="72.910754" fuel_abs="64874.846598" electricity_abs="0"/>
    </tripinfo>
    <tripinfo id="f_5.1" depart="100.00" departLane="E1_1" departPos="5.10" departSpeed="0.00" departDelay="0.00" arrival="185.00" arrivalLane="-E2_1" arrivalPos="89.60" arrivalSpeed="14.05" duration="85.00" routeLength="183.13" waitingTime="51.00" waitingCount="1" stopTime="0.00" timeLoss="59.32" rerouteNo="0" devices="tripinfo_f_5.1 emissions_f_5.1" vType="DEFAULT_VEHTYPE" speedFactor="1.10" vaporized="">
        <emissions CO_abs="314.590904" CO2_abs="159380.051386" HC_abs="2.080781" PMx_abs="4.414602" NOx_abs="57.644449" fuel_abs="51669.229710" electricity_abs="0"/>
    </tripinfo>