<?xml version="1.0" encoding="UTF-8"?>

<!-- generated on 2025-07-20 12:10:02 by Eclipse SUMO sumo Version 1.23.1
<sumoConfiguration xmlns:xsi="http://www.w3.org/2001/XMLSchema-instance" xsi:noNamespaceSchemaLocation="http://sumo.dlr.de/xsd/sumoConfiguration.xsd">

    <input>
        <net-file value="sumo_simulation/sumo_elements/test.net.xml"/>
        <route-files value="sumo_simulation/sumo_elements/test.rou.xml"/>
        <additional-files value="sumo_simulation/sumo_elements/test.add.xml"/>
    </input>

    <output>
        <tripinfo-output value="sumo_simulation/sumo_elements/metrics/20250720_121001_tripinfo_log.xml"/>
    </output>

    <report>
        <log value="sumo_simulation/sumo_elements/metrics/20250720_121001_metrics.log"/>
        <duration-log.statistics value="true"/>
    </report>

    <emissions>
        <device.emissions.probability value="1.0"/>
    </emissions>

    <traci_server>
        <remote-port value="55013"/>
    </traci_server>

</sumoConfiguration>
-->

<meandata xmlns:xsi="http://www.w3.org/2001/XMLSchema-instance" xsi:noNamespaceSchemaLocation="http://sumo.dlr.de/xsd/meandata_file.xsd">
    <interval begin="0.00" end="49369.00" id="01">
        <edge id="-E1">
            <lane id="-E1_0" sampledSeconds="0.00" departed="0" arrived="0" entered="0" left="0" laneChangedFrom="0" laneChangedTo="0"/>
            <lane id="-E1_1" sampledSeconds="2655.00" traveltime="8.02" overlapTraveltime="8.42" density="0.60" laneDensity="0.60" occupancy="0.28" waitingTime="0.00" timeLoss="492.59" speed="11.24" speedRelative="0.81" departed="0" arrived="323" entered="315" left="0" laneChangedFrom="0" laneChangedTo="8"/>
            <lane id="-E1_2" sampledSeconds="40924.06" traveltime="7.19" overlapTraveltime="7.58" density="9.25" laneDensity="9.25" occupancy="4.38" waitingTime="0.00" timeLoss="3739.24" speed="12.49" speedRelative="0.90" departed="0" arrived="5456" entered="5464" left="0" laneChangedFrom="8" laneChangedTo="0"/>
        </edge>
        <edge id="-E2">
            <lane id="-E2_0" sampledSeconds="0.00" departed="0" arrived="0" entered="0" left="0" laneChangedFrom="0" laneChangedTo="0"/>
            <lane id="-E2_1" sampledSeconds="3375.83" traveltime="8.05" overlapTraveltime="8.45" density="0.76" laneDensity="0.76" occupancy="0.36" waitingTime="0.00" timeLoss="605.50" speed="11.20" speedRelative="0.81" departed="0" arrived="404" entered="404" left="0" laneChangedFrom="0" laneChangedTo="0"/>
            <lane id="-E2_2" sampledSeconds="2984.27" traveltime="7.18" overlapTraveltime="7.57" density="0.67" laneDensity="0.67" occupancy="0.32" waitingTime="0.00" timeLoss="286.33" speed="12.50" speedRelative="0.90" departed="0" arrived="399" entered="399" left="0" laneChangedFrom="0" laneChangedTo="0"/>
        </edge>
        <edge id="-E3">
            <lane id="-E3_0" sampledSeconds="0.00" departed="0" arrived="0" entered="0" left="0" laneChangedFrom="0" laneChangedTo="0"/>
            <lane id="-E3_1" sampledSeconds="2526.82" traveltime="7.99" overlapTraveltime="8.39" density="0.57" laneDensity="0.57" occupancy="0.27" waitingTime="0.00" timeLoss="456.93" speed="11.28" speedRelative="0.81" departed="0" arrived="306" entered="301" left="0" laneChangedFrom="0" laneChangedTo="5"/>
            <lane id="-E3_2" sampledSeconds="41081.11" traveltime="7.18" overlapTraveltime="7.56" density="9.29" laneDensity="9.29" occupancy="4.40" waitingTime="0.00" timeLoss="3725.42" speed="12.51" speedRelative="0.90" departed="0" arrived="5491" entered="5496" left="0" laneChangedFrom="5" laneChangedTo="0"/>
        </edge>
        <edge id="-E4">
            <lane id="-E4_0" sampledSeconds="0.00" departed="0" arrived="0" entered="0" left="0" laneChangedFrom="0" laneChangedTo="0"/>
            <lane id="-E4_1" sampledSeconds="3131.06" traveltime="8.03" overlapTraveltime="8.42" density="0.71" laneDensity="0.71" occupancy="0.33" waitingTime="0.00" timeLoss="576.18" speed="11.23" speedRelative="0.81" departed="0" arrived="376" entered="375" left="0" laneChangedFrom="0" laneChangedTo="1"/>
            <lane id="-E4_2" sampledSeconds="2880.79" traveltime="7.17" overlapTraveltime="7.56" density="0.65" laneDensity="0.65" occupancy="0.31" waitingTime="0.00" timeLoss="259.04" speed="12.52" speedRelative="0.90" departed="0" arrived="385" entered="386" left="0" laneChangedFrom="1" laneChangedTo="0"/>
        </edge>
        <edge id="E1">
            <lane id="E1_0" sampledSeconds="0.00" departed="0" arrived="0" entered="0" left="0" laneChangedFrom="0" laneChangedTo="0"/>
            <lane id="E1_1" sampledSeconds="295088.86" traveltime="109.00" overlapTraveltime="114.34" density="66.71" laneDensity="66.71" occupancy="33.35" waitingTime="196024.00" timeLoss="236224.71" speed="0.83" speedRelative="0.20" departed="5823" arrived="0" entered="0" left="404" laneChangedFrom="5429" laneChangedTo="10"/>
            <lane id="E1_2" sampledSeconds="506434.35" traveltime="179.39" overlapTraveltime="172.96" density="114.49" laneDensity="114.49" occupancy="56.96" waitingTime="367403.00" timeLoss="445439.98" speed="0.55" speedRelative="0.13" departed="0" arrived="0" entered="0" left="5419" laneChangedFrom="10" laneChangedTo="5429"/>
        </edge>
        <edge id="E2">
            <lane id="E2_0" sampledSeconds="0.00" departed="0" arrived="0" entered="0" left="0" laneChangedFrom="0" laneChangedTo="0"/>
            <lane id="E2_1" sampledSeconds="11175.24" traveltime="29.52" overlapTraveltime="30.71" density="2.53" laneDensity="2.53" occupancy="1.25" waitingTime="5801.00" timeLoss="8896.91" speed="3.08" speedRelative="0.18" departed="760" arrived="0" entered="0" left="301" laneChangedFrom="474" laneChangedTo="15"/>
            <lane id="E2_2" sampledSeconds="18652.18" traveltime="52.27" overlapTraveltime="52.54" density="4.22" laneDensity="4.22" occupancy="2.10" waitingTime="13280.00" timeLoss="16542.59" speed="1.80" speedRelative="0.11" departed="0" arrived="0" entered="0" left="459" laneChangedFrom="15" laneChangedTo="474"/>
        </edge>
        <edge id="E3">
            <lane id="E3_0" sampledSeconds="0.00" departed="0" arrived="0" entered="0" left="0" laneChangedFrom="0" laneChangedTo="0"/>
            <lane id="E3_1" sampledSeconds="306225.78" traveltime="112.29" overlapTraveltime="117.84" density="69.23" laneDensity="69.23" occupancy="34.61" waitingTime="238858.00" timeLoss="291074.34" speed="0.80" speedRelative="0.05" departed="5769" arrived="0" entered="0" left="375" laneChangedFrom="5412" laneChangedTo="18"/>
            <lane id="E3_2" sampledSeconds="479093.10" traveltime="174.01" overlapTraveltime="167.57" density="108.31" laneDensity="108.31" occupancy="53.86" waitingTime="343089.00" timeLoss="419681.81" speed="0.56" speedRelative="0.14" departed="0" arrived="0" entered="0" left="5394" laneChangedFrom="18" laneChangedTo="5412"/>
        </edge>
        <edge id="E4">
            <lane id="E4_0" sampledSeconds="0.00" departed="0" arrived="0" entered="0" left="0" laneChangedFrom="0" laneChangedTo="0"/>
            <lane id="E4_1" sampledSeconds="12095.12" traveltime="30.92" overlapTraveltime="32.12" density="2.73" laneDensity="2.73" occupancy="1.35" waitingTime="6419.00" timeLoss="9739.22" speed="2.95" speedRelative="0.18" departed="788" arrived="0" entered="0" left="315" laneChangedFrom="489" laneChangedTo="16"/>
            <lane id="E4_2" sampledSeconds="19709.09" traveltime="53.19" overlapTraveltime="53.43" density="4.46" laneDensity="4.46" occupancy="2.22" waitingTime="14029.00" timeLoss="17529.93" speed="1.77" speedRelative="0.11" departed="0" arrived="0" entered="0" left="473" laneChangedFrom="16" laneChangedTo="489"/>
        </edge>
    </interval>
</meandata>
