<?xml version="1.0" encoding="UTF-8"?>

<!-- generated on 2025-07-24 13:20:49 by Eclipse SUMO sumo Version 1.23.1
<sumoConfiguration xmlns:xsi="http://www.w3.org/2001/XMLSchema-instance" xsi:noNamespaceSchemaLocation="http://sumo.dlr.de/xsd/sumoConfiguration.xsd">

    <input>
        <net-file value="sumo_simulation/sumo_elements/test.net.xml"/>
        <route-files value="sumo_simulation/sumo_elements/test.rou.xml"/>
        <additional-files value="sumo_simulation/sumo_elements/test.add.xml"/>
    </input>

    <output>
        <tripinfo-output value="sumo_simulation/sumo_elements/metrics/20250724_132049_tripinfo_log.xml"/>
    </output>

    <report>
        <log value="sumo_simulation/sumo_elements/metrics/20250724_132049_metrics.log"/>
        <duration-log.statistics value="true"/>
    </report>

    <emissions>
        <device.emissions.probability value="1.0"/>
    </emissions>

    <traci_server>
        <remote-port value="54297"/>
    </traci_server>

</sumoConfiguration>
-->

<meandata xmlns:xsi="http://www.w3.org/2001/XMLSchema-instance" xsi:noNamespaceSchemaLocation="http://sumo.dlr.de/xsd/meandata_file.xsd">
    <interval begin="0.00" end="14501.00" id="01">
        <edge id="-E1">
            <lane id="-E1_0" sampledSeconds="0.00" departed="0" arrived="0" entered="0" left="0" laneChangedFrom="0" laneChangedTo="0"/>
            <lane id="-E1_1" sampledSeconds="2671.68" traveltime="8.03" overlapTraveltime="8.42" density="2.06" laneDensity="2.06" occupancy="0.96" waitingTime="0.00" timeLoss="494.52" speed="11.24" speedRelative="0.81" departed="0" arrived="327" entered="316" left="0" laneChangedFrom="0" laneChangedTo="11"/>
            <lane id="-E1_2" sampledSeconds="10929.63" traveltime="7.19" overlapTraveltime="7.57" density="8.41" laneDensity="8.41" occupancy="3.99" waitingTime="0.00" timeLoss="1034.53" speed="12.49" speedRelative="0.90" departed="0" arrived="1452" entered="1463" left="0" laneChangedFrom="11" laneChangedTo="0"/>
        </edge>
        <edge id="-E2">
            <lane id="-E2_0" sampledSeconds="0.00" departed="0" arrived="0" entered="0" left="0" laneChangedFrom="0" laneChangedTo="0"/>
            <lane id="-E2_1" sampledSeconds="3259.62" traveltime="8.09" overlapTraveltime="8.49" density="2.51" laneDensity="2.51" occupancy="1.17" waitingTime="0.00" timeLoss="593.68" speed="11.15" speedRelative="0.80" departed="0" arrived="388" entered="388" left="0" laneChangedFrom="0" laneChangedTo="0"/>
            <lane id="-E2_2" sampledSeconds="3117.20" traveltime="7.20" overlapTraveltime="7.58" density="2.40" laneDensity="2.40" occupancy="1.14" waitingTime="0.00" timeLoss="304.67" speed="12.48" speedRelative="0.90" departed="0" arrived="415" entered="415" left="0" laneChangedFrom="0" laneChangedTo="0"/>
        </edge>
        <edge id="-E3">
            <lane id="-E3_0" sampledSeconds="0.00" departed="0" arrived="0" entered="0" left="0" laneChangedFrom="0" laneChangedTo="0"/>
            <lane id="-E3_1" sampledSeconds="2575.36" traveltime="7.97" overlapTraveltime="8.37" density="1.98" laneDensity="1.98" occupancy="0.93" waitingTime="0.00" timeLoss="470.78" speed="11.31" speedRelative="0.81" departed="0" arrived="315" entered="305" left="0" laneChangedFrom="0" laneChangedTo="10"/>
            <lane id="-E3_2" sampledSeconds="11180.80" traveltime="7.22" overlapTraveltime="7.60" density="8.61" laneDensity="8.61" occupancy="4.08" waitingTime="0.00" timeLoss="1031.42" speed="12.44" speedRelative="0.90" departed="0" arrived="1482" entered="1492" left="0" laneChangedFrom="10" laneChangedTo="0"/>
        </edge>
        <edge id="-E4">
            <lane id="-E4_0" sampledSeconds="0.00" departed="0" arrived="0" entered="0" left="0" laneChangedFrom="0" laneChangedTo="0"/>
            <lane id="-E4_1" sampledSeconds="3113.05" traveltime="8.02" overlapTraveltime="8.41" density="2.40" laneDensity="2.40" occupancy="1.12" waitingTime="0.00" timeLoss="569.79" speed="11.24" speedRelative="0.81" departed="0" arrived="374" entered="374" left="0" laneChangedFrom="0" laneChangedTo="0"/>
            <lane id="-E4_2" sampledSeconds="2914.72" traveltime="7.23" overlapTraveltime="7.62" density="2.24" laneDensity="2.24" occupancy="1.07" waitingTime="0.00" timeLoss="283.29" speed="12.43" speedRelative="0.89" departed="0" arrived="387" entered="387" left="0" laneChangedFrom="0" laneChangedTo="0"/>
        </edge>
        <edge id="E1">
            <lane id="E1_0" sampledSeconds="0.00" departed="0" arrived="0" entered="0" left="0" laneChangedFrom="0" laneChangedTo="0"/>
            <lane id="E1_1" sampledSeconds="96281.65" traveltime="104.12" overlapTraveltime="107.96" density="74.10" laneDensity="74.10" occupancy="37.06" waitingTime="62310.00" timeLoss="76004.04" speed="0.88" speedRelative="0.21" departed="1823" arrived="0" entered="0" left="388" laneChangedFrom="1453" laneChangedTo="18"/>
            <lane id="E1_2" sampledSeconds="147298.86" traveltime="182.30" overlapTraveltime="176.88" density="113.37" laneDensity="113.37" occupancy="56.48" waitingTime="107604.00" timeLoss="129749.79" speed="0.53" speedRelative="0.13" departed="0" arrived="0" entered="0" left="1435" laneChangedFrom="18" laneChangedTo="1453"/>
        </edge>
        <edge id="E2">
            <lane id="E2_0" sampledSeconds="0.00" departed="0" arrived="0" entered="0" left="0" laneChangedFrom="0" laneChangedTo="0"/>
            <lane id="E2_1" sampledSeconds="10599.16" traveltime="27.89" overlapTraveltime="29.05" density="8.16" laneDensity="8.16" occupancy="4.02" waitingTime="5233.00" timeLoss="8319.58" speed="3.26" speedRelative="0.20" departed="760" arrived="0" entered="0" left="305" laneChangedFrom="469" laneChangedTo="14"/>
            <lane id="E2_2" sampledSeconds="18529.06" traveltime="52.02" overlapTraveltime="52.34" density="14.26" laneDensity="14.26" occupancy="7.10" waitingTime="13138.00" timeLoss="16425.58" speed="1.81" speedRelative="0.11" departed="0" arrived="0" entered="0" left="455" laneChangedFrom="14" laneChangedTo="469"/>
        </edge>
        <edge id="E3">
            <lane id="E3_0" sampledSeconds="0.00" departed="0" arrived="0" entered="0" left="0" laneChangedFrom="0" laneChangedTo="0"/>
            <lane id="E3_1" sampledSeconds="93208.10" traveltime="102.74" overlapTraveltime="106.51" density="71.74" laneDensity="71.74" occupancy="35.85" waitingTime="70307.00" timeLoss="87965.27" speed="0.89" speedRelative="0.05" departed="1769" arrived="0" entered="0" left="374" laneChangedFrom="1418" laneChangedTo="23"/>
            <lane id="E3_2" sampledSeconds="137211.14" traveltime="177.27" overlapTraveltime="171.86" density="105.60" laneDensity="105.60" occupancy="52.60" waitingTime="99263.00" timeLoss="120525.47" speed="0.55" speedRelative="0.13" departed="0" arrived="0" entered="0" left="1395" laneChangedFrom="23" laneChangedTo="1418"/>
        </edge>
        <edge id="E4">
            <lane id="E4_0" sampledSeconds="0.00" departed="0" arrived="0" entered="0" left="0" laneChangedFrom="0" laneChangedTo="0"/>
            <lane id="E4_1" sampledSeconds="11983.79" traveltime="30.69" overlapTraveltime="31.89" density="9.22" laneDensity="9.22" occupancy="4.55" waitingTime="6322.00" timeLoss="9632.48" speed="2.97" speedRelative="0.18" departed="788" arrived="0" entered="0" left="316" laneChangedFrom="485" laneChangedTo="13"/>
            <lane id="E4_2" sampledSeconds="20040.60" traveltime="53.97" overlapTraveltime="54.22" density="15.42" laneDensity="15.42" occupancy="7.68" waitingTime="14339.00" timeLoss="17856.94" speed="1.75" speedRelative="0.10" departed="0" arrived="0" entered="0" left="472" laneChangedFrom="13" laneChangedTo="485"/>
        </edge>
    </interval>
</meandata>
