<?xml version="1.0" encoding="UTF-8"?>

<!-- generated on 2025-07-18 09:55:17 by Eclipse SUMO sumo Version 1.23.1
<sumoConfiguration xmlns:xsi="http://www.w3.org/2001/XMLSchema-instance" xsi:noNamespaceSchemaLocation="http://sumo.dlr.de/xsd/sumoConfiguration.xsd">

    <input>
        <net-file value="sumo_simulation/sumo_elements/test.net.xml"/>
        <route-files value="sumo_simulation/sumo_elements/test.rou.xml"/>
        <additional-files value="sumo_simulation/sumo_elements/test.add.xml"/>
    </input>

    <output>
        <tripinfo-output value="sumo_simulation/sumo_elements/metrics/20250718_095516_adaptive_tripinfo_log.xml"/>
    </output>

    <report>
        <log value="sumo_simulation/sumo_elements/metrics/20250718_095516_adaptive_metrics.log"/>
        <duration-log.statistics value="true"/>
    </report>

    <emissions>
        <device.emissions.probability value="1.0"/>
    </emissions>

    <traci_server>
        <remote-port value="60545"/>
    </traci_server>

</sumoConfiguration>
-->

<meandata xmlns:xsi="http://www.w3.org/2001/XMLSchema-instance" xsi:noNamespaceSchemaLocation="http://sumo.dlr.de/xsd/meandata_file.xsd">
    <interval begin="0.00" end="10156.00" id="01">
        <edge id="-E1">
            <lane id="-E1_0" sampledSeconds="0.00" departed="0" arrived="0" entered="0" left="0" laneChangedFrom="0" laneChangedTo="0"/>
            <lane id="-E1_1" sampledSeconds="2424.52" traveltime="8.03" overlapTraveltime="8.42" density="2.66" laneDensity="2.66" occupancy="1.24" waitingTime="0.00" timeLoss="447.01" speed="11.23" speedRelative="0.81" departed="0" arrived="295" entered="287" left="0" laneChangedFrom="0" laneChangedTo="8"/>
            <lane id="-E1_2" sampledSeconds="3715.66" traveltime="7.31" overlapTraveltime="7.70" density="4.08" laneDensity="4.08" occupancy="1.94" waitingTime="0.00" timeLoss="405.43" speed="12.29" speedRelative="0.88" departed="0" arrived="484" entered="492" left="0" laneChangedFrom="8" laneChangedTo="0"/>
        </edge>
        <edge id="-E2">
            <lane id="-E2_0" sampledSeconds="0.00" departed="0" arrived="0" entered="0" left="0" laneChangedFrom="0" laneChangedTo="0"/>
            <lane id="-E2_1" sampledSeconds="2628.12" traveltime="8.12" overlapTraveltime="8.52" density="2.89" laneDensity="2.89" occupancy="1.35" waitingTime="0.00" timeLoss="473.41" speed="11.10" speedRelative="0.80" departed="0" arrived="312" entered="311" left="0" laneChangedFrom="0" laneChangedTo="1"/>
            <lane id="-E2_2" sampledSeconds="3724.14" traveltime="7.28" overlapTraveltime="7.67" density="4.09" laneDensity="4.09" occupancy="1.95" waitingTime="0.00" timeLoss="408.48" speed="12.34" speedRelative="0.89" departed="0" arrived="491" entered="492" left="0" laneChangedFrom="1" laneChangedTo="0"/>
        </edge>
        <edge id="-E3">
            <lane id="-E3_0" sampledSeconds="0.00" departed="0" arrived="0" entered="0" left="0" laneChangedFrom="0" laneChangedTo="0"/>
            <lane id="-E3_1" sampledSeconds="2421.71" traveltime="8.02" overlapTraveltime="8.41" density="2.66" laneDensity="2.66" occupancy="1.24" waitingTime="0.00" timeLoss="444.20" speed="11.25" speedRelative="0.81" departed="0" arrived="295" entered="288" left="0" laneChangedFrom="0" laneChangedTo="7"/>
            <lane id="-E3_2" sampledSeconds="7559.58" traveltime="7.21" overlapTraveltime="7.59" density="8.31" laneDensity="8.31" occupancy="3.94" waitingTime="0.00" timeLoss="732.94" speed="12.46" speedRelative="0.90" departed="0" arrived="1002" entered="1009" left="0" laneChangedFrom="7" laneChangedTo="0"/>
        </edge>
        <edge id="-E4">
            <lane id="-E4_0" sampledSeconds="0.00" departed="0" arrived="0" entered="0" left="0" laneChangedFrom="0" laneChangedTo="0"/>
            <lane id="-E4_1" sampledSeconds="1626.51" traveltime="7.95" overlapTraveltime="8.34" density="1.79" laneDensity="1.79" occupancy="0.83" waitingTime="0.00" timeLoss="290.53" speed="11.34" speedRelative="0.82" departed="0" arrived="197" entered="193" left="0" laneChangedFrom="0" laneChangedTo="4"/>
            <lane id="-E4_2" sampledSeconds="4338.00" traveltime="7.38" overlapTraveltime="7.77" density="4.77" laneDensity="4.77" occupancy="2.26" waitingTime="0.00" timeLoss="497.31" speed="12.17" speedRelative="0.88" departed="0" arrived="564" entered="568" left="0" laneChangedFrom="4" laneChangedTo="0"/>
        </edge>
        <edge id="E1">
            <lane id="E1_0" sampledSeconds="0.00" departed="0" arrived="0" entered="0" left="0" laneChangedFrom="0" laneChangedTo="0"/>
            <lane id="E1_1" sampledSeconds="39512.18" traveltime="80.68" overlapTraveltime="83.07" density="43.42" laneDensity="43.42" occupancy="21.64" waitingTime="23300.00" timeLoss="28707.97" speed="1.14" speedRelative="0.27" departed="1323" arrived="0" entered="0" left="311" laneChangedFrom="1044" laneChangedTo="32"/>
            <lane id="E1_2" sampledSeconds="70690.67" traveltime="91.14" overlapTraveltime="91.11" density="77.68" laneDensity="77.68" occupancy="38.70" waitingTime="42731.00" timeLoss="54093.94" speed="1.04" speedRelative="0.25" departed="0" arrived="0" entered="0" left="1012" laneChangedFrom="32" laneChangedTo="1044"/>
        </edge>
        <edge id="E2">
            <lane id="E2_0" sampledSeconds="0.00" departed="0" arrived="0" entered="0" left="0" laneChangedFrom="0" laneChangedTo="0"/>
            <lane id="E2_1" sampledSeconds="13048.57" traveltime="34.91" overlapTraveltime="36.20" density="14.34" laneDensity="14.34" occupancy="7.09" waitingTime="7609.00" timeLoss="10804.07" speed="2.61" speedRelative="0.16" departed="760" arrived="0" entered="0" left="288" laneChangedFrom="493" laneChangedTo="21"/>
            <lane id="E2_2" sampledSeconds="16009.46" traveltime="44.34" overlapTraveltime="44.66" density="17.59" laneDensity="17.59" occupancy="8.74" waitingTime="10798.00" timeLoss="13873.45" speed="2.12" speedRelative="0.13" departed="0" arrived="0" entered="0" left="472" laneChangedFrom="21" laneChangedTo="493"/>
        </edge>
        <edge id="E3">
            <lane id="E3_0" sampledSeconds="0.00" departed="0" arrived="0" entered="0" left="0" laneChangedFrom="0" laneChangedTo="0"/>
            <lane id="E3_1" sampledSeconds="12673.02" traveltime="35.10" overlapTraveltime="36.63" density="13.93" laneDensity="13.93" occupancy="6.91" waitingTime="7513.00" timeLoss="10574.39" speed="2.58" speedRelative="0.15" departed="769" arrived="0" entered="0" left="193" laneChangedFrom="580" laneChangedTo="4"/>
            <lane id="E3_2" sampledSeconds="19927.35" traveltime="51.84" overlapTraveltime="52.25" density="21.90" laneDensity="21.90" occupancy="10.85" waitingTime="8611.00" timeLoss="11780.37" speed="1.81" speedRelative="0.43" departed="0" arrived="0" entered="0" left="576" laneChangedFrom="4" laneChangedTo="580"/>
        </edge>
        <edge id="E4">
            <lane id="E4_0" sampledSeconds="0.00" departed="0" arrived="0" entered="0" left="0" laneChangedFrom="0" laneChangedTo="0"/>
            <lane id="E4_1" sampledSeconds="14345.93" traveltime="37.37" overlapTraveltime="38.71" density="15.77" laneDensity="15.77" occupancy="7.80" waitingTime="8598.00" timeLoss="12040.52" speed="2.44" speedRelative="0.15" departed="788" arrived="0" entered="0" left="287" laneChangedFrom="517" laneChangedTo="16"/>
            <lane id="E4_2" sampledSeconds="18629.68" traveltime="49.49" overlapTraveltime="49.70" density="20.47" laneDensity="20.47" occupancy="10.16" waitingTime="12799.00" timeLoss="16401.77" speed="1.90" speedRelative="0.11" departed="0" arrived="0" entered="0" left="501" laneChangedFrom="16" laneChangedTo="517"/>
        </edge>
    </interval>
</meandata>
