<?xml version="1.0" encoding="UTF-8"?>

<!-- generated on 2025-07-18 09:53:01 by Eclipse SUMO sumo Version 1.23.1
<sumoConfiguration xmlns:xsi="http://www.w3.org/2001/XMLSchema-instance" xsi:noNamespaceSchemaLocation="http://sumo.dlr.de/xsd/sumoConfiguration.xsd">

    <input>
        <net-file value="sumo_simulation/sumo_elements/test.net.xml"/>
        <route-files value="sumo_simulation/sumo_elements/test.rou.xml"/>
        <additional-files value="sumo_simulation/sumo_elements/test.add.xml"/>
    </input>

    <output>
        <tripinfo-output value="sumo_simulation/sumo_elements/metrics/20250718_095300_adaptive_tripinfo_log.xml"/>
    </output>

    <report>
        <log value="sumo_simulation/sumo_elements/metrics/20250718_095300_adaptive_metrics.log"/>
        <duration-log.statistics value="true"/>
    </report>

    <emissions>
        <device.emissions.probability value="1.0"/>
    </emissions>

    <traci_server>
        <remote-port value="60538"/>
    </traci_server>

</sumoConfiguration>
-->

<meandata xmlns:xsi="http://www.w3.org/2001/XMLSchema-instance" xsi:noNamespaceSchemaLocation="http://sumo.dlr.de/xsd/meandata_file.xsd">
    <interval begin="0.00" end="10165.00" id="01">
        <edge id="-E1">
            <lane id="-E1_0" sampledSeconds="0.00" departed="0" arrived="0" entered="0" left="0" laneChangedFrom="0" laneChangedTo="0"/>
            <lane id="-E1_1" sampledSeconds="2447.63" traveltime="8.05" overlapTraveltime="8.45" density="2.69" laneDensity="2.69" occupancy="1.26" waitingTime="0.00" timeLoss="453.25" speed="11.20" speedRelative="0.81" departed="0" arrived="294" entered="289" left="0" laneChangedFrom="0" laneChangedTo="5"/>
            <lane id="-E1_2" sampledSeconds="3697.10" traveltime="7.30" overlapTraveltime="7.68" density="4.06" laneDensity="4.06" occupancy="1.93" waitingTime="0.00" timeLoss="399.74" speed="12.32" speedRelative="0.89" departed="0" arrived="485" entered="490" left="0" laneChangedFrom="5" laneChangedTo="0"/>
        </edge>
        <edge id="-E2">
            <lane id="-E2_0" sampledSeconds="0.00" departed="0" arrived="0" entered="0" left="0" laneChangedFrom="0" laneChangedTo="0"/>
            <lane id="-E2_1" sampledSeconds="2134.22" traveltime="8.11" overlapTraveltime="8.51" density="2.34" laneDensity="2.34" occupancy="1.09" waitingTime="0.00" timeLoss="380.64" speed="11.12" speedRelative="0.80" departed="0" arrived="254" entered="254" left="0" laneChangedFrom="0" laneChangedTo="0"/>
            <lane id="-E2_2" sampledSeconds="4176.97" traveltime="7.32" overlapTraveltime="7.70" density="4.59" laneDensity="4.59" occupancy="2.18" waitingTime="0.00" timeLoss="467.17" speed="12.28" speedRelative="0.88" departed="0" arrived="549" entered="549" left="0" laneChangedFrom="0" laneChangedTo="0"/>
        </edge>
        <edge id="-E3">
            <lane id="-E3_0" sampledSeconds="0.00" departed="0" arrived="0" entered="0" left="0" laneChangedFrom="0" laneChangedTo="0"/>
            <lane id="-E3_1" sampledSeconds="2305.42" traveltime="8.03" overlapTraveltime="8.43" density="2.53" laneDensity="2.53" occupancy="1.18" waitingTime="0.00" timeLoss="421.56" speed="11.23" speedRelative="0.81" departed="0" arrived="285" entered="274" left="0" laneChangedFrom="0" laneChangedTo="11"/>
            <lane id="-E3_2" sampledSeconds="7674.65" traveltime="7.22" overlapTraveltime="7.60" density="8.43" laneDensity="8.43" occupancy="4.00" waitingTime="0.00" timeLoss="751.99" speed="12.45" speedRelative="0.90" departed="0" arrived="1012" entered="1023" left="0" laneChangedFrom="11" laneChangedTo="0"/>
        </edge>
        <edge id="-E4">
            <lane id="-E4_0" sampledSeconds="0.00" departed="0" arrived="0" entered="0" left="0" laneChangedFrom="0" laneChangedTo="0"/>
            <lane id="-E4_1" sampledSeconds="1518.28" traveltime="8.03" overlapTraveltime="8.42" density="1.67" laneDensity="1.67" occupancy="0.78" waitingTime="0.00" timeLoss="274.82" speed="11.23" speedRelative="0.81" departed="0" arrived="182" entered="178" left="0" laneChangedFrom="0" laneChangedTo="4"/>
            <lane id="-E4_2" sampledSeconds="4468.80" traveltime="7.40" overlapTraveltime="7.79" density="4.91" laneDensity="4.91" occupancy="2.33" waitingTime="0.00" timeLoss="529.66" speed="12.14" speedRelative="0.87" departed="0" arrived="579" entered="583" left="0" laneChangedFrom="4" laneChangedTo="0"/>
        </edge>
        <edge id="E1">
            <lane id="E1_0" sampledSeconds="0.00" departed="0" arrived="0" entered="0" left="0" laneChangedFrom="0" laneChangedTo="0"/>
            <lane id="E1_1" sampledSeconds="27066.03" traveltime="65.89" overlapTraveltime="68.03" density="29.72" laneDensity="29.72" occupancy="14.78" waitingTime="14406.00" timeLoss="18026.25" speed="1.39" speedRelative="0.33" departed="1323" arrived="0" entered="0" left="254" laneChangedFrom="1095" laneChangedTo="26"/>
            <lane id="E1_2" sampledSeconds="56471.50" traveltime="65.62" overlapTraveltime="66.15" density="62.00" laneDensity="62.00" occupancy="30.78" waitingTime="28704.00" timeLoss="38115.75" speed="1.43" speedRelative="0.34" departed="0" arrived="0" entered="0" left="1069" laneChangedFrom="26" laneChangedTo="1095"/>
        </edge>
        <edge id="E2">
            <lane id="E2_0" sampledSeconds="0.00" departed="0" arrived="0" entered="0" left="0" laneChangedFrom="0" laneChangedTo="0"/>
            <lane id="E2_1" sampledSeconds="13087.11" traveltime="35.16" overlapTraveltime="36.50" density="14.37" laneDensity="14.37" occupancy="7.11" waitingTime="7649.00" timeLoss="10860.22" speed="2.59" speedRelative="0.16" departed="760" arrived="0" entered="0" left="274" laneChangedFrom="501" laneChangedTo="15"/>
            <lane id="E2_2" sampledSeconds="16719.36" traveltime="46.13" overlapTraveltime="46.40" density="18.36" laneDensity="18.36" occupancy="9.13" waitingTime="11459.00" timeLoss="14568.38" speed="2.04" speedRelative="0.12" departed="0" arrived="0" entered="0" left="486" laneChangedFrom="15" laneChangedTo="501"/>
        </edge>
        <edge id="E3">
            <lane id="E3_0" sampledSeconds="0.00" departed="0" arrived="0" entered="0" left="0" laneChangedFrom="0" laneChangedTo="0"/>
            <lane id="E3_1" sampledSeconds="12314.97" traveltime="33.78" overlapTraveltime="35.32" density="13.52" laneDensity="13.52" occupancy="6.71" waitingTime="7160.00" timeLoss="10208.26" speed="2.68" speedRelative="0.16" departed="769" arrived="0" entered="0" left="178" laneChangedFrom="594" laneChangedTo="3"/>
            <lane id="E3_2" sampledSeconds="18548.15" traveltime="48.54" overlapTraveltime="48.97" density="20.37" laneDensity="20.37" occupancy="10.07" waitingTime="7434.00" timeLoss="10482.03" speed="1.93" speedRelative="0.46" departed="0" arrived="0" entered="0" left="591" laneChangedFrom="3" laneChangedTo="594"/>
        </edge>
        <edge id="E4">
            <lane id="E4_0" sampledSeconds="0.00" departed="0" arrived="0" entered="0" left="0" laneChangedFrom="0" laneChangedTo="0"/>
            <lane id="E4_1" sampledSeconds="14238.88" traveltime="37.18" overlapTraveltime="38.51" density="15.63" laneDensity="15.63" occupancy="7.73" waitingTime="8484.00" timeLoss="11938.70" speed="2.46" speedRelative="0.15" departed="788" arrived="0" entered="0" left="289" laneChangedFrom="521" laneChangedTo="22"/>
            <lane id="E4_2" sampledSeconds="18028.48" traveltime="47.73" overlapTraveltime="47.99" density="19.79" laneDensity="19.79" occupancy="9.83" waitingTime="12295.00" timeLoss="15797.27" speed="1.97" speedRelative="0.12" departed="0" arrived="0" entered="0" left="499" laneChangedFrom="22" laneChangedTo="521"/>
        </edge>
    </interval>
</meandata>
