<?xml version="1.0" encoding="UTF-8"?>

<!-- generated on 2025-07-20 12:29:19 by Eclipse SUMO sumo Version 1.23.1
<sumoConfiguration xmlns:xsi="http://www.w3.org/2001/XMLSchema-instance" xsi:noNamespaceSchemaLocation="http://sumo.dlr.de/xsd/sumoConfiguration.xsd">

    <input>
        <net-file value="sumo_simulation/sumo_elements/test.net.xml"/>
        <route-files value="sumo_simulation/sumo_elements/test.rou.xml"/>
        <additional-files value="sumo_simulation/sumo_elements/test.add.xml"/>
    </input>

    <output>
        <tripinfo-output value="sumo_simulation/sumo_elements/metrics/20250720_122918_tripinfo_log.xml"/>
    </output>

    <report>
        <log value="sumo_simulation/sumo_elements/metrics/20250720_122918_metrics.log"/>
        <duration-log.statistics value="true"/>
    </report>

    <emissions>
        <device.emissions.probability value="1.0"/>
    </emissions>

    <traci_server>
        <remote-port value="55049"/>
    </traci_server>

</sumoConfiguration>
-->

<meandata xmlns:xsi="http://www.w3.org/2001/XMLSchema-instance" xsi:noNamespaceSchemaLocation="http://sumo.dlr.de/xsd/meandata_file.xsd">
    <interval begin="0.00" end="10185.00" id="01">
        <edge id="-E1">
            <lane id="-E1_0" sampledSeconds="0.00" departed="0" arrived="0" entered="0" left="0" laneChangedFrom="0" laneChangedTo="0"/>
            <lane id="-E1_1" sampledSeconds="2246.63" traveltime="8.05" overlapTraveltime="8.44" density="2.46" laneDensity="2.46" occupancy="1.15" waitingTime="0.00" timeLoss="416.19" speed="11.21" speedRelative="0.81" departed="0" arrived="274" entered="262" left="0" laneChangedFrom="0" laneChangedTo="12"/>
            <lane id="-E1_2" sampledSeconds="3915.31" traveltime="7.38" overlapTraveltime="7.77" density="4.29" laneDensity="4.29" occupancy="2.04" waitingTime="0.00" timeLoss="458.86" speed="12.18" speedRelative="0.88" departed="0" arrived="505" entered="517" left="0" laneChangedFrom="12" laneChangedTo="0"/>
        </edge>
        <edge id="-E2">
            <lane id="-E2_0" sampledSeconds="0.00" departed="0" arrived="0" entered="0" left="0" laneChangedFrom="0" laneChangedTo="0"/>
            <lane id="-E2_1" sampledSeconds="1449.72" traveltime="8.02" overlapTraveltime="8.41" density="1.59" laneDensity="1.59" occupancy="0.74" waitingTime="0.00" timeLoss="257.41" speed="11.24" speedRelative="0.81" departed="0" arrived="174" entered="172" left="0" laneChangedFrom="0" laneChangedTo="2"/>
            <lane id="-E2_2" sampledSeconds="4862.86" traveltime="7.43" overlapTraveltime="7.82" density="5.33" laneDensity="5.33" occupancy="2.53" waitingTime="0.00" timeLoss="584.86" speed="12.10" speedRelative="0.87" departed="0" arrived="629" entered="631" left="0" laneChangedFrom="2" laneChangedTo="0"/>
        </edge>
        <edge id="-E3">
            <lane id="-E3_0" sampledSeconds="0.00" departed="0" arrived="0" entered="0" left="0" laneChangedFrom="0" laneChangedTo="0"/>
            <lane id="-E3_1" sampledSeconds="2149.42" traveltime="8.03" overlapTraveltime="8.43" density="2.36" laneDensity="2.36" occupancy="1.10" waitingTime="0.00" timeLoss="392.04" speed="11.23" speedRelative="0.81" departed="0" arrived="264" entered="254" left="0" laneChangedFrom="0" laneChangedTo="10"/>
            <lane id="-E3_2" sampledSeconds="4084.40" traveltime="7.27" overlapTraveltime="7.66" density="4.48" laneDensity="4.48" occupancy="2.13" waitingTime="0.00" timeLoss="433.23" speed="12.36" speedRelative="0.89" departed="0" arrived="533" entered="543" left="0" laneChangedFrom="10" laneChangedTo="0"/>
        </edge>
        <edge id="-E4">
            <lane id="-E4_0" sampledSeconds="0.00" departed="0" arrived="0" entered="0" left="0" laneChangedFrom="0" laneChangedTo="0"/>
            <lane id="-E4_1" sampledSeconds="1453.13" traveltime="7.96" overlapTraveltime="8.35" density="1.59" laneDensity="1.59" occupancy="0.74" waitingTime="0.00" timeLoss="259.47" speed="11.33" speedRelative="0.82" departed="0" arrived="176" entered="172" left="0" laneChangedFrom="0" laneChangedTo="4"/>
            <lane id="-E4_2" sampledSeconds="4502.40" traveltime="7.39" overlapTraveltime="7.78" density="4.93" laneDensity="4.93" occupancy="2.34" waitingTime="0.00" timeLoss="521.05" speed="12.16" speedRelative="0.88" departed="0" arrived="585" entered="589" left="0" laneChangedFrom="4" laneChangedTo="0"/>
        </edge>
        <edge id="E1">
            <lane id="E1_0" sampledSeconds="0.00" departed="0" arrived="0" entered="0" left="0" laneChangedFrom="0" laneChangedTo="0"/>
            <lane id="E1_1" sampledSeconds="13428.87" traveltime="35.45" overlapTraveltime="37.08" density="14.72" laneDensity="14.72" occupancy="7.31" waitingTime="8130.00" timeLoss="11229.52" speed="2.55" speedRelative="0.15" departed="823" arrived="0" entered="0" left="172" laneChangedFrom="651" laneChangedTo="0"/>
            <lane id="E1_2" sampledSeconds="15289.93" traveltime="36.36" overlapTraveltime="36.73" density="16.75" laneDensity="16.75" occupancy="8.26" waitingTime="9465.00" timeLoss="12748.68" speed="2.58" speedRelative="0.15" departed="0" arrived="0" entered="0" left="651" laneChangedFrom="0" laneChangedTo="651"/>
        </edge>
        <edge id="E2">
            <lane id="E2_0" sampledSeconds="0.00" departed="0" arrived="0" entered="0" left="0" laneChangedFrom="0" laneChangedTo="0"/>
            <lane id="E2_1" sampledSeconds="12676.06" traveltime="34.25" overlapTraveltime="35.62" density="13.89" laneDensity="13.89" occupancy="6.87" waitingTime="7345.00" timeLoss="10476.53" speed="2.66" speedRelative="0.16" departed="760" arrived="0" entered="0" left="254" laneChangedFrom="524" laneChangedTo="18"/>
            <lane id="E2_2" sampledSeconds="14355.59" traveltime="39.21" overlapTraveltime="39.55" density="15.73" laneDensity="15.73" occupancy="7.82" waitingTime="9281.00" timeLoss="12176.13" speed="2.39" speedRelative="0.14" departed="0" arrived="0" entered="0" left="506" laneChangedFrom="18" laneChangedTo="524"/>
        </edge>
        <edge id="E3">
            <lane id="E3_0" sampledSeconds="0.00" departed="0" arrived="0" entered="0" left="0" laneChangedFrom="0" laneChangedTo="0"/>
            <lane id="E3_1" sampledSeconds="12109.98" traveltime="33.73" overlapTraveltime="35.28" density="13.27" laneDensity="13.27" occupancy="6.59" waitingTime="7138.00" timeLoss="10040.44" speed="2.68" speedRelative="0.16" departed="769" arrived="0" entered="0" left="172" laneChangedFrom="597" laneChangedTo="0"/>
            <lane id="E3_2" sampledSeconds="14981.95" traveltime="38.76" overlapTraveltime="38.99" density="16.42" laneDensity="16.42" occupancy="8.11" waitingTime="9444.00" timeLoss="12638.13" speed="2.43" speedRelative="0.15" departed="0" arrived="0" entered="0" left="597" laneChangedFrom="0" laneChangedTo="597"/>
        </edge>
        <edge id="E4">
            <lane id="E4_0" sampledSeconds="0.00" departed="0" arrived="0" entered="0" left="0" laneChangedFrom="0" laneChangedTo="0"/>
            <lane id="E4_1" sampledSeconds="13035.64" traveltime="34.20" overlapTraveltime="35.56" density="14.28" laneDensity="14.28" occupancy="7.07" waitingTime="7455.00" timeLoss="10772.31" speed="2.66" speedRelative="0.16" departed="788" arrived="0" entered="0" left="262" laneChangedFrom="543" laneChangedTo="17"/>
            <lane id="E4_2" sampledSeconds="15416.81" traveltime="40.42" overlapTraveltime="40.70" density="16.89" laneDensity="16.89" occupancy="8.38" waitingTime="10009.00" timeLoss="13153.50" speed="2.33" speedRelative="0.14" departed="0" arrived="0" entered="0" left="526" laneChangedFrom="17" laneChangedTo="543"/>
        </edge>
    </interval>
</meandata>
