<?xml version="1.0" encoding="UTF-8"?>

<!-- generated on 2025-07-20 11:42:32 by Eclipse SUMO sumo Version 1.23.1
<sumoConfiguration xmlns:xsi="http://www.w3.org/2001/XMLSchema-instance" xsi:noNamespaceSchemaLocation="http://sumo.dlr.de/xsd/sumoConfiguration.xsd">

    <input>
        <net-file value="sumo_simulation/sumo_elements/test.net.xml"/>
        <route-files value="sumo_simulation/sumo_elements/test.rou.xml"/>
        <additional-files value="sumo_simulation/sumo_elements/test.add.xml"/>
    </input>

    <output>
        <tripinfo-output value="sumo_simulation/sumo_elements/metrics/20250720_114231_tripinfo_log.xml"/>
    </output>

    <report>
        <log value="sumo_simulation/sumo_elements/metrics/20250720_114231_metrics.log"/>
        <duration-log.statistics value="true"/>
    </report>

    <emissions>
        <device.emissions.probability value="1.0"/>
    </emissions>

    <traci_server>
        <remote-port value="54932"/>
    </traci_server>

</sumoConfiguration>
-->

<meandata xmlns:xsi="http://www.w3.org/2001/XMLSchema-instance" xsi:noNamespaceSchemaLocation="http://sumo.dlr.de/xsd/meandata_file.xsd">
    <interval begin="0.00" end="27492.00" id="01">
        <edge id="-E1">
            <lane id="-E1_0" sampledSeconds="0.00" departed="0" arrived="0" entered="0" left="0" laneChangedFrom="0" laneChangedTo="0"/>
            <lane id="-E1_1" sampledSeconds="2616.93" traveltime="8.03" overlapTraveltime="8.42" density="1.06" laneDensity="1.06" occupancy="0.50" waitingTime="0.00" timeLoss="486.18" speed="11.23" speedRelative="0.81" departed="0" arrived="322" entered="308" left="0" laneChangedFrom="0" laneChangedTo="14"/>
            <lane id="-E1_2" sampledSeconds="22215.16" traveltime="7.18" overlapTraveltime="7.57" density="9.02" laneDensity="9.02" occupancy="4.27" waitingTime="0.00" timeLoss="2061.33" speed="12.50" speedRelative="0.90" departed="0" arrived="2957" entered="2971" left="0" laneChangedFrom="14" laneChangedTo="0"/>
        </edge>
        <edge id="-E2">
            <lane id="-E2_0" sampledSeconds="0.00" departed="0" arrived="0" entered="0" left="0" laneChangedFrom="0" laneChangedTo="0"/>
            <lane id="-E2_1" sampledSeconds="3342.51" traveltime="8.07" overlapTraveltime="8.46" density="1.36" laneDensity="1.36" occupancy="0.63" waitingTime="0.00" timeLoss="603.58" speed="11.18" speedRelative="0.80" departed="0" arrived="399" entered="399" left="0" laneChangedFrom="0" laneChangedTo="0"/>
            <lane id="-E2_2" sampledSeconds="3030.94" traveltime="7.20" overlapTraveltime="7.58" density="1.23" laneDensity="1.23" occupancy="0.59" waitingTime="0.00" timeLoss="295.64" speed="12.48" speedRelative="0.90" departed="0" arrived="404" entered="404" left="0" laneChangedFrom="0" laneChangedTo="0"/>
        </edge>
        <edge id="-E3">
            <lane id="-E3_0" sampledSeconds="0.00" departed="0" arrived="0" entered="0" left="0" laneChangedFrom="0" laneChangedTo="0"/>
            <lane id="-E3_1" sampledSeconds="2532.63" traveltime="7.97" overlapTraveltime="8.37" density="1.03" laneDensity="1.03" occupancy="0.48" waitingTime="0.00" timeLoss="461.32" speed="11.31" speedRelative="0.81" departed="0" arrived="309" entered="301" left="0" laneChangedFrom="0" laneChangedTo="8"/>
            <lane id="-E3_2" sampledSeconds="22398.65" traveltime="7.19" overlapTraveltime="7.57" density="9.09" laneDensity="9.09" occupancy="4.31" waitingTime="0.00" timeLoss="2063.44" speed="12.49" speedRelative="0.90" departed="0" arrived="2988" entered="2996" left="0" laneChangedFrom="8" laneChangedTo="0"/>
        </edge>
        <edge id="-E4">
            <lane id="-E4_0" sampledSeconds="0.00" departed="0" arrived="0" entered="0" left="0" laneChangedFrom="0" laneChangedTo="0"/>
            <lane id="-E4_1" sampledSeconds="3126.81" traveltime="7.99" overlapTraveltime="8.38" density="1.27" laneDensity="1.27" occupancy="0.59" waitingTime="0.00" timeLoss="562.88" speed="11.29" speedRelative="0.81" departed="0" arrived="377" entered="377" left="0" laneChangedFrom="0" laneChangedTo="0"/>
            <lane id="-E4_2" sampledSeconds="2874.71" traveltime="7.19" overlapTraveltime="7.57" density="1.17" laneDensity="1.17" occupancy="0.56" waitingTime="0.00" timeLoss="264.62" speed="12.50" speedRelative="0.90" departed="0" arrived="384" entered="384" left="0" laneChangedFrom="0" laneChangedTo="0"/>
        </edge>
        <edge id="E1">
            <lane id="E1_0" sampledSeconds="0.00" departed="0" arrived="0" entered="0" left="0" laneChangedFrom="0" laneChangedTo="0"/>
            <lane id="E1_1" sampledSeconds="170623.12" traveltime="106.59" overlapTraveltime="111.34" density="69.27" laneDensity="69.27" occupancy="34.63" waitingTime="111784.00" timeLoss="135736.29" speed="0.85" speedRelative="0.20" departed="3323" arrived="0" entered="0" left="399" laneChangedFrom="2937" laneChangedTo="13"/>
            <lane id="E1_2" sampledSeconds="281487.49" traveltime="180.89" overlapTraveltime="174.70" density="114.27" laneDensity="114.27" occupancy="56.86" waitingTime="204864.00" timeLoss="247864.49" speed="0.54" speedRelative="0.13" departed="0" arrived="0" entered="0" left="2924" laneChangedFrom="13" laneChangedTo="2937"/>
        </edge>
        <edge id="E2">
            <lane id="E2_0" sampledSeconds="0.00" departed="0" arrived="0" entered="0" left="0" laneChangedFrom="0" laneChangedTo="0"/>
            <lane id="E2_1" sampledSeconds="11454.31" traveltime="30.32" overlapTraveltime="31.52" density="4.65" laneDensity="4.65" occupancy="2.29" waitingTime="6056.00" timeLoss="9183.87" speed="3.00" speedRelative="0.18" departed="760" arrived="0" entered="0" left="301" laneChangedFrom="477" laneChangedTo="18"/>
            <lane id="E2_2" sampledSeconds="17738.53" traveltime="49.60" overlapTraveltime="49.91" density="7.20" laneDensity="7.20" occupancy="3.59" waitingTime="12509.00" timeLoss="15623.24" speed="1.90" speedRelative="0.11" departed="0" arrived="0" entered="0" left="459" laneChangedFrom="18" laneChangedTo="477"/>
        </edge>
        <edge id="E3">
            <lane id="E3_0" sampledSeconds="0.00" departed="0" arrived="0" entered="0" left="0" laneChangedFrom="0" laneChangedTo="0"/>
            <lane id="E3_1" sampledSeconds="173300.18" traveltime="108.86" overlapTraveltime="113.74" density="70.35" laneDensity="70.35" occupancy="35.16" waitingTime="133857.00" timeLoss="164338.86" speed="0.83" speedRelative="0.05" departed="3269" arrived="0" entered="0" left="377" laneChangedFrom="2916" laneChangedTo="24"/>
            <lane id="E3_2" sampledSeconds="263850.88" traveltime="174.26" overlapTraveltime="168.17" density="107.11" laneDensity="107.11" occupancy="53.31" waitingTime="189487.00" timeLoss="231255.82" speed="0.56" speedRelative="0.13" departed="0" arrived="0" entered="0" left="2892" laneChangedFrom="24" laneChangedTo="2916"/>
        </edge>
        <edge id="E4">
            <lane id="E4_0" sampledSeconds="0.00" departed="0" arrived="0" entered="0" left="0" laneChangedFrom="0" laneChangedTo="0"/>
            <lane id="E4_1" sampledSeconds="13184.86" traveltime="33.92" overlapTraveltime="35.16" density="5.35" laneDensity="5.35" occupancy="2.64" waitingTime="7489.00" timeLoss="10841.50" speed="2.69" speedRelative="0.16" departed="788" arrived="0" entered="0" left="308" laneChangedFrom="499" laneChangedTo="19"/>
            <lane id="E4_2" sampledSeconds="20247.27" traveltime="54.47" overlapTraveltime="54.66" density="8.22" laneDensity="8.22" occupancy="4.09" waitingTime="14378.00" timeLoss="18055.05" speed="1.73" speedRelative="0.10" departed="0" arrived="0" entered="0" left="480" laneChangedFrom="19" laneChangedTo="499"/>
        </edge>
    </interval>
</meandata>
