<?xml version="1.0" encoding="UTF-8"?>

<!-- generated on 2025-07-18 10:09:13 by Eclipse SUMO sumo Version 1.23.1
<sumoConfiguration xmlns:xsi="http://www.w3.org/2001/XMLSchema-instance" xsi:noNamespaceSchemaLocation="http://sumo.dlr.de/xsd/sumoConfiguration.xsd">

    <input>
        <net-file value="sumo_simulation/sumo_elements/test.net.xml"/>
        <route-files value="sumo_simulation/sumo_elements/test.rou.xml"/>
        <additional-files value="sumo_simulation/sumo_elements/test.add.xml"/>
    </input>

    <output>
        <tripinfo-output value="sumo_simulation/sumo_elements/metrics/20250718_100912_adaptive_tripinfo_log.xml"/>
    </output>

    <report>
        <log value="sumo_simulation/sumo_elements/metrics/20250718_100912_adaptive_metrics.log"/>
        <duration-log.statistics value="true"/>
    </report>

    <emissions>
        <device.emissions.probability value="1.0"/>
    </emissions>

    <traci_server>
        <remote-port value="60603"/>
    </traci_server>

</sumoConfiguration>
-->

<meandata xmlns:xsi="http://www.w3.org/2001/XMLSchema-instance" xsi:noNamespaceSchemaLocation="http://sumo.dlr.de/xsd/meandata_file.xsd">
    <interval begin="0.00" end="13867.00" id="01">
        <edge id="-E1">
            <lane id="-E1_0" sampledSeconds="0.00" departed="0" arrived="0" entered="0" left="0" laneChangedFrom="0" laneChangedTo="0"/>
            <lane id="-E1_1" sampledSeconds="2411.40" traveltime="8.02" overlapTraveltime="8.41" density="1.94" laneDensity="1.94" occupancy="0.91" waitingTime="0.00" timeLoss="448.42" speed="11.25" speedRelative="0.81" departed="0" arrived="293" entered="283" left="0" laneChangedFrom="0" laneChangedTo="10"/>
            <lane id="-E1_2" sampledSeconds="3737.75" traveltime="7.32" overlapTraveltime="7.71" density="3.01" laneDensity="3.01" occupancy="1.43" waitingTime="0.00" timeLoss="403.39" speed="12.28" speedRelative="0.88" departed="0" arrived="486" entered="496" left="0" laneChangedFrom="10" laneChangedTo="0"/>
        </edge>
        <edge id="-E2">
            <lane id="-E2_0" sampledSeconds="0.00" departed="0" arrived="0" entered="0" left="0" laneChangedFrom="0" laneChangedTo="0"/>
            <lane id="-E2_1" sampledSeconds="3306.11" traveltime="8.06" overlapTraveltime="8.45" density="2.66" laneDensity="2.66" occupancy="1.24" waitingTime="0.00" timeLoss="598.28" speed="11.19" speedRelative="0.81" departed="0" arrived="395" entered="395" left="0" laneChangedFrom="0" laneChangedTo="0"/>
            <lane id="-E2_2" sampledSeconds="3040.94" traveltime="7.16" overlapTraveltime="7.54" density="2.45" laneDensity="2.45" occupancy="1.17" waitingTime="0.00" timeLoss="278.83" speed="12.54" speedRelative="0.90" departed="0" arrived="408" entered="408" left="0" laneChangedFrom="0" laneChangedTo="0"/>
        </edge>
        <edge id="-E3">
            <lane id="-E3_0" sampledSeconds="0.00" departed="0" arrived="0" entered="0" left="0" laneChangedFrom="0" laneChangedTo="0"/>
            <lane id="-E3_1" sampledSeconds="2540.85" traveltime="8.01" overlapTraveltime="8.41" density="2.04" laneDensity="2.04" occupancy="0.95" waitingTime="0.00" timeLoss="466.87" speed="11.25" speedRelative="0.81" departed="0" arrived="310" entered="302" left="0" laneChangedFrom="0" laneChangedTo="8"/>
            <lane id="-E3_2" sampledSeconds="11204.58" traveltime="7.20" overlapTraveltime="7.59" density="9.02" laneDensity="9.02" occupancy="4.28" waitingTime="0.00" timeLoss="1052.71" speed="12.47" speedRelative="0.90" departed="0" arrived="1487" entered="1495" left="0" laneChangedFrom="8" laneChangedTo="0"/>
        </edge>
        <edge id="-E4">
            <lane id="-E4_0" sampledSeconds="0.00" departed="0" arrived="0" entered="0" left="0" laneChangedFrom="0" laneChangedTo="0"/>
            <lane id="-E4_1" sampledSeconds="1650.43" traveltime="8.00" overlapTraveltime="8.39" density="1.33" laneDensity="1.33" occupancy="0.62" waitingTime="0.00" timeLoss="293.66" speed="11.28" speedRelative="0.81" departed="0" arrived="200" entered="197" left="0" laneChangedFrom="0" laneChangedTo="3"/>
            <lane id="-E4_2" sampledSeconds="4331.85" traveltime="7.41" overlapTraveltime="7.80" density="3.49" laneDensity="3.49" occupancy="1.66" waitingTime="0.00" timeLoss="515.83" speed="12.14" speedRelative="0.87" departed="0" arrived="561" entered="564" left="0" laneChangedFrom="3" laneChangedTo="0"/>
        </edge>
        <edge id="E1">
            <lane id="E1_0" sampledSeconds="0.00" departed="0" arrived="0" entered="0" left="0" laneChangedFrom="0" laneChangedTo="0"/>
            <lane id="E1_1" sampledSeconds="92171.58" traveltime="101.66" overlapTraveltime="105.35" density="74.18" laneDensity="74.18" occupancy="37.06" waitingTime="58998.00" timeLoss="72288.93" speed="0.90" speedRelative="0.22" departed="1823" arrived="0" entered="0" left="395" laneChangedFrom="1441" laneChangedTo="13"/>
            <lane id="E1_2" sampledSeconds="139811.47" traveltime="169.09" overlapTraveltime="164.55" density="112.53" laneDensity="112.53" occupancy="56.09" waitingTime="100053.00" timeLoss="121966.80" speed="0.57" speedRelative="0.14" departed="0" arrived="0" entered="0" left="1428" laneChangedFrom="13" laneChangedTo="1441"/>
        </edge>
        <edge id="E2">
            <lane id="E2_0" sampledSeconds="0.00" departed="0" arrived="0" entered="0" left="0" laneChangedFrom="0" laneChangedTo="0"/>
            <lane id="E2_1" sampledSeconds="12384.95" traveltime="32.93" overlapTraveltime="34.16" density="9.97" laneDensity="9.97" occupancy="4.92" waitingTime="6895.00" timeLoss="10117.63" speed="2.77" speedRelative="0.17" departed="760" arrived="0" entered="0" left="302" laneChangedFrom="478" laneChangedTo="20"/>
            <lane id="E2_2" sampledSeconds="17490.99" traveltime="48.72" overlapTraveltime="49.08" density="14.08" laneDensity="14.08" occupancy="7.01" waitingTime="12127.00" timeLoss="15374.03" speed="1.93" speedRelative="0.12" departed="0" arrived="0" entered="0" left="458" laneChangedFrom="20" laneChangedTo="478"/>
        </edge>
        <edge id="E3">
            <lane id="E3_0" sampledSeconds="0.00" departed="0" arrived="0" entered="0" left="0" laneChangedFrom="0" laneChangedTo="0"/>
            <lane id="E3_1" sampledSeconds="12602.65" traveltime="34.84" overlapTraveltime="36.36" density="10.14" laneDensity="10.14" occupancy="5.03" waitingTime="7434.00" timeLoss="10493.51" speed="2.60" speedRelative="0.16" departed="769" arrived="0" entered="0" left="197" laneChangedFrom="576" laneChangedTo="4"/>
            <lane id="E3_2" sampledSeconds="20578.37" traveltime="53.68" overlapTraveltime="54.05" density="16.56" laneDensity="16.56" occupancy="8.22" waitingTime="9311.00" timeLoss="12444.88" speed="1.75" speedRelative="0.42" departed="0" arrived="0" entered="0" left="572" laneChangedFrom="4" laneChangedTo="576"/>
        </edge>
        <edge id="E4">
            <lane id="E4_0" sampledSeconds="0.00" departed="0" arrived="0" entered="0" left="0" laneChangedFrom="0" laneChangedTo="0"/>
            <lane id="E4_1" sampledSeconds="13217.79" traveltime="34.51" overlapTraveltime="35.81" density="10.64" laneDensity="10.64" occupancy="5.26" waitingTime="7586.00" timeLoss="10922.23" speed="2.64" speedRelative="0.16" departed="788" arrived="0" entered="0" left="283" laneChangedFrom="522" laneChangedTo="17"/>
            <lane id="E4_2" sampledSeconds="19131.51" traveltime="50.67" overlapTraveltime="50.84" density="15.40" laneDensity="15.40" occupancy="7.65" waitingTime="13294.00" timeLoss="16891.17" speed="1.86" speedRelative="0.11" departed="0" arrived="0" entered="0" left="505" laneChangedFrom="17" laneChangedTo="522"/>
        </edge>
    </interval>
</meandata>
