<?xml version="1.0" encoding="UTF-8"?>

<!-- generated on 2025-07-18 10:21:41 by Eclipse SUMO sumo Version 1.23.1
<sumoConfiguration xmlns:xsi="http://www.w3.org/2001/XMLSchema-instance" xsi:noNamespaceSchemaLocation="http://sumo.dlr.de/xsd/sumoConfiguration.xsd">

    <input>
        <net-file value="sumo_simulation/sumo_elements/test.net.xml"/>
        <route-files value="sumo_simulation/sumo_elements/test.rou.xml"/>
        <additional-files value="sumo_simulation/sumo_elements/test.add.xml"/>
    </input>

    <output>
        <tripinfo-output value="sumo_simulation/sumo_elements/metrics/20250718_102140_adaptive_tripinfo_log.xml"/>
    </output>

    <report>
        <log value="sumo_simulation/sumo_elements/metrics/20250718_102140_adaptive_metrics.log"/>
        <duration-log.statistics value="true"/>
    </report>

    <emissions>
        <device.emissions.probability value="1.0"/>
    </emissions>

    <traci_server>
        <remote-port value="60643"/>
    </traci_server>

</sumoConfiguration>
-->

<meandata xmlns:xsi="http://www.w3.org/2001/XMLSchema-instance" xsi:noNamespaceSchemaLocation="http://sumo.dlr.de/xsd/meandata_file.xsd">
    <interval begin="0.00" end="18017.00" id="01">
        <edge id="-E1">
            <lane id="-E1_0" sampledSeconds="0.00" departed="0" arrived="0" entered="0" left="0" laneChangedFrom="0" laneChangedTo="0"/>
            <lane id="-E1_1" sampledSeconds="2525.50" traveltime="7.99" overlapTraveltime="8.38" density="1.56" laneDensity="1.56" occupancy="0.73" waitingTime="0.00" timeLoss="465.03" speed="11.29" speedRelative="0.81" departed="0" arrived="308" entered="299" left="0" laneChangedFrom="0" laneChangedTo="9"/>
            <lane id="-E1_2" sampledSeconds="3617.73" traveltime="7.31" overlapTraveltime="7.70" density="2.24" laneDensity="2.24" occupancy="1.06" waitingTime="0.00" timeLoss="382.32" speed="12.30" speedRelative="0.89" departed="0" arrived="471" entered="480" left="0" laneChangedFrom="9" laneChangedTo="0"/>
        </edge>
        <edge id="-E2">
            <lane id="-E2_0" sampledSeconds="0.00" departed="0" arrived="0" entered="0" left="0" laneChangedFrom="0" laneChangedTo="0"/>
            <lane id="-E2_1" sampledSeconds="3315.40" traveltime="8.06" overlapTraveltime="8.46" density="2.05" laneDensity="2.05" occupancy="0.96" waitingTime="0.00" timeLoss="598.87" speed="11.18" speedRelative="0.81" departed="0" arrived="396" entered="396" left="0" laneChangedFrom="0" laneChangedTo="0"/>
            <lane id="-E2_2" sampledSeconds="3050.48" traveltime="7.19" overlapTraveltime="7.58" density="1.89" laneDensity="1.89" occupancy="0.90" waitingTime="0.00" timeLoss="294.10" speed="12.48" speedRelative="0.90" departed="0" arrived="407" entered="407" left="0" laneChangedFrom="0" laneChangedTo="0"/>
        </edge>
        <edge id="-E3">
            <lane id="-E3_0" sampledSeconds="0.00" departed="0" arrived="0" entered="0" left="0" laneChangedFrom="0" laneChangedTo="0"/>
            <lane id="-E3_1" sampledSeconds="2609.49" traveltime="8.02" overlapTraveltime="8.42" density="1.62" laneDensity="1.62" occupancy="0.75" waitingTime="0.00" timeLoss="474.77" speed="11.24" speedRelative="0.81" departed="0" arrived="320" entered="310" left="0" laneChangedFrom="0" laneChangedTo="10"/>
            <lane id="-E3_2" sampledSeconds="14853.20" traveltime="7.18" overlapTraveltime="7.56" density="9.20" laneDensity="9.20" occupancy="4.36" waitingTime="0.00" timeLoss="1358.17" speed="12.51" speedRelative="0.90" departed="0" arrived="1977" entered="1987" left="0" laneChangedFrom="10" laneChangedTo="0"/>
        </edge>
        <edge id="-E4">
            <lane id="-E4_0" sampledSeconds="0.00" departed="0" arrived="0" entered="0" left="0" laneChangedFrom="0" laneChangedTo="0"/>
            <lane id="-E4_1" sampledSeconds="1711.65" traveltime="7.99" overlapTraveltime="8.39" density="1.06" laneDensity="1.06" occupancy="0.49" waitingTime="0.00" timeLoss="303.47" speed="11.28" speedRelative="0.81" departed="0" arrived="206" entered="206" left="0" laneChangedFrom="0" laneChangedTo="0"/>
            <lane id="-E4_2" sampledSeconds="4277.80" traveltime="7.40" overlapTraveltime="7.79" density="2.65" laneDensity="2.65" occupancy="1.26" waitingTime="0.00" timeLoss="505.09" speed="12.15" speedRelative="0.88" departed="0" arrived="555" entered="555" left="0" laneChangedFrom="0" laneChangedTo="0"/>
        </edge>
        <edge id="E1">
            <lane id="E1_0" sampledSeconds="0.00" departed="0" arrived="0" entered="0" left="0" laneChangedFrom="0" laneChangedTo="0"/>
            <lane id="E1_1" sampledSeconds="115245.63" traveltime="100.82" overlapTraveltime="104.89" density="71.39" laneDensity="71.39" occupancy="35.67" waitingTime="73051.00" timeLoss="90220.77" speed="0.90" speedRelative="0.22" departed="2323" arrived="0" entered="0" left="396" laneChangedFrom="1944" laneChangedTo="17"/>
            <lane id="E1_2" sampledSeconds="183415.86" traveltime="172.19" overlapTraveltime="166.92" density="113.62" laneDensity="113.62" occupancy="56.58" waitingTime="131310.00" timeLoss="160460.89" speed="0.57" speedRelative="0.14" departed="0" arrived="0" entered="0" left="1927" laneChangedFrom="17" laneChangedTo="1944"/>
        </edge>
        <edge id="E2">
            <lane id="E2_0" sampledSeconds="0.00" departed="0" arrived="0" entered="0" left="0" laneChangedFrom="0" laneChangedTo="0"/>
            <lane id="E2_1" sampledSeconds="11806.56" traveltime="31.22" overlapTraveltime="32.43" density="7.31" laneDensity="7.31" occupancy="3.61" waitingTime="6335.00" timeLoss="9522.78" speed="2.92" speedRelative="0.18" departed="760" arrived="0" entered="0" left="310" laneChangedFrom="470" laneChangedTo="20"/>
            <lane id="E2_2" sampledSeconds="19538.05" traveltime="54.78" overlapTraveltime="55.07" density="12.10" laneDensity="12.10" occupancy="6.03" waitingTime="14057.00" timeLoss="17436.44" speed="1.72" speedRelative="0.10" departed="0" arrived="0" entered="0" left="450" laneChangedFrom="20" laneChangedTo="470"/>
        </edge>
        <edge id="E3">
            <lane id="E3_0" sampledSeconds="0.00" departed="0" arrived="0" entered="0" left="0" laneChangedFrom="0" laneChangedTo="0"/>
            <lane id="E3_1" sampledSeconds="10738.23" traveltime="28.96" overlapTraveltime="30.32" density="6.65" laneDensity="6.65" occupancy="3.29" waitingTime="5616.00" timeLoss="8584.94" speed="3.12" speedRelative="0.19" departed="769" arrived="0" entered="0" left="206" laneChangedFrom="564" laneChangedTo="1"/>
            <lane id="E3_2" sampledSeconds="18428.69" traveltime="48.90" overlapTraveltime="49.38" density="11.42" laneDensity="11.42" occupancy="5.66" waitingTime="7481.00" timeLoss="10466.81" speed="1.92" speedRelative="0.46" departed="0" arrived="0" entered="0" left="563" laneChangedFrom="1" laneChangedTo="564"/>
        </edge>
        <edge id="E4">
            <lane id="E4_0" sampledSeconds="0.00" departed="0" arrived="0" entered="0" left="0" laneChangedFrom="0" laneChangedTo="0"/>
            <lane id="E4_1" sampledSeconds="13833.97" traveltime="35.98" overlapTraveltime="37.27" density="8.57" laneDensity="8.57" occupancy="4.24" waitingTime="8146.00" timeLoss="11519.85" speed="2.54" speedRelative="0.15" departed="788" arrived="0" entered="0" left="299" laneChangedFrom="504" laneChangedTo="15"/>
            <lane id="E4_2" sampledSeconds="20907.46" traveltime="55.67" overlapTraveltime="55.87" density="12.95" laneDensity="12.95" occupancy="6.44" waitingTime="14988.00" timeLoss="18689.68" speed="1.69" speedRelative="0.10" departed="0" arrived="0" entered="0" left="489" laneChangedFrom="15" laneChangedTo="504"/>
        </edge>
    </interval>
</meandata>
