<?xml version="1.0" encoding="UTF-8"?>

<!-- generated on 2025-07-20 10:46:48 by Eclipse SUMO sumo Version 1.23.1
<sumoConfiguration xmlns:xsi="http://www.w3.org/2001/XMLSchema-instance" xsi:noNamespaceSchemaLocation="http://sumo.dlr.de/xsd/sumoConfiguration.xsd">

    <input>
        <net-file value="sumo_simulation/sumo_elements/test.net.xml"/>
        <route-files value="sumo_simulation/sumo_elements/test.rou.xml"/>
        <additional-files value="sumo_simulation/sumo_elements/test.add.xml"/>
    </input>

    <output>
        <tripinfo-output value="sumo_simulation/sumo_elements/metrics/20250720_104647_tripinfo_log.xml"/>
    </output>

    <report>
        <log value="sumo_simulation/sumo_elements/metrics/20250720_104647_metrics.log"/>
        <duration-log.statistics value="true"/>
    </report>

    <emissions>
        <device.emissions.probability value="1.0"/>
    </emissions>

    <traci_server>
        <remote-port value="61777"/>
    </traci_server>

</sumoConfiguration>
-->

<meandata xmlns:xsi="http://www.w3.org/2001/XMLSchema-instance" xsi:noNamespaceSchemaLocation="http://sumo.dlr.de/xsd/meandata_file.xsd">
    <interval begin="0.00" end="13939.00" id="01">
        <edge id="-E1">
            <lane id="-E1_0" sampledSeconds="0.00" departed="0" arrived="0" entered="0" left="0" laneChangedFrom="0" laneChangedTo="0"/>
            <lane id="-E1_1" sampledSeconds="2733.99" traveltime="7.98" overlapTraveltime="8.37" density="2.19" laneDensity="2.19" occupancy="1.02" waitingTime="0.00" timeLoss="502.38" speed="11.30" speedRelative="0.81" departed="0" arrived="336" entered="324" left="0" laneChangedFrom="0" laneChangedTo="12"/>
            <lane id="-E1_2" sampledSeconds="10887.99" traveltime="7.20" overlapTraveltime="7.59" density="8.72" laneDensity="8.72" occupancy="4.13" waitingTime="0.00" timeLoss="1019.41" speed="12.47" speedRelative="0.90" departed="0" arrived="1443" entered="1455" left="0" laneChangedFrom="12" laneChangedTo="0"/>
        </edge>
        <edge id="-E2">
            <lane id="-E2_0" sampledSeconds="0.00" departed="0" arrived="0" entered="0" left="0" laneChangedFrom="0" laneChangedTo="0"/>
            <lane id="-E2_1" sampledSeconds="3293.63" traveltime="8.08" overlapTraveltime="8.48" density="2.64" laneDensity="2.64" occupancy="1.23" waitingTime="0.00" timeLoss="596.44" speed="11.16" speedRelative="0.80" departed="0" arrived="393" entered="393" left="0" laneChangedFrom="0" laneChangedTo="0"/>
            <lane id="-E2_2" sampledSeconds="3080.34" traveltime="7.21" overlapTraveltime="7.59" density="2.47" laneDensity="2.47" occupancy="1.18" waitingTime="0.00" timeLoss="305.01" speed="12.47" speedRelative="0.90" departed="0" arrived="410" entered="410" left="0" laneChangedFrom="0" laneChangedTo="0"/>
        </edge>
        <edge id="-E3">
            <lane id="-E3_0" sampledSeconds="0.00" departed="0" arrived="0" entered="0" left="0" laneChangedFrom="0" laneChangedTo="0"/>
            <lane id="-E3_1" sampledSeconds="2666.56" traveltime="8.03" overlapTraveltime="8.43" density="2.14" laneDensity="2.14" occupancy="1.00" waitingTime="0.00" timeLoss="484.67" speed="11.23" speedRelative="0.81" departed="0" arrived="325" entered="317" left="0" laneChangedFrom="0" laneChangedTo="8"/>
            <lane id="-E3_2" sampledSeconds="11083.51" traveltime="7.20" overlapTraveltime="7.59" density="8.87" laneDensity="8.87" occupancy="4.21" waitingTime="0.00" timeLoss="1034.96" speed="12.47" speedRelative="0.90" departed="0" arrived="1472" entered="1480" left="0" laneChangedFrom="8" laneChangedTo="0"/>
        </edge>
        <edge id="-E4">
            <lane id="-E4_0" sampledSeconds="0.00" departed="0" arrived="0" entered="0" left="0" laneChangedFrom="0" laneChangedTo="0"/>
            <lane id="-E4_1" sampledSeconds="3125.14" traveltime="8.04" overlapTraveltime="8.43" density="2.50" laneDensity="2.50" occupancy="1.17" waitingTime="0.00" timeLoss="576.89" speed="11.22" speedRelative="0.81" departed="0" arrived="374" entered="374" left="0" laneChangedFrom="0" laneChangedTo="0"/>
            <lane id="-E4_2" sampledSeconds="2916.73" traveltime="7.23" overlapTraveltime="7.62" density="2.34" laneDensity="2.34" occupancy="1.12" waitingTime="0.00" timeLoss="283.06" speed="12.43" speedRelative="0.89" departed="0" arrived="387" entered="387" left="0" laneChangedFrom="0" laneChangedTo="0"/>
        </edge>
        <edge id="E1">
            <lane id="E1_0" sampledSeconds="0.00" departed="0" arrived="0" entered="0" left="0" laneChangedFrom="0" laneChangedTo="0"/>
            <lane id="E1_1" sampledSeconds="90195.07" traveltime="97.61" overlapTraveltime="101.22" density="72.22" laneDensity="72.22" occupancy="36.08" waitingTime="56059.00" timeLoss="69897.01" speed="0.93" speedRelative="0.22" departed="1823" arrived="0" entered="0" left="393" laneChangedFrom="1442" laneChangedTo="12"/>
            <lane id="E1_2" sampledSeconds="141374.26" traveltime="174.65" overlapTraveltime="169.62" density="113.20" laneDensity="113.20" occupancy="56.44" waitingTime="102590.00" timeLoss="123898.89" speed="0.56" speedRelative="0.13" departed="0" arrived="0" entered="0" left="1430" laneChangedFrom="12" laneChangedTo="1442"/>
        </edge>
        <edge id="E2">
            <lane id="E2_0" sampledSeconds="0.00" departed="0" arrived="0" entered="0" left="0" laneChangedFrom="0" laneChangedTo="0"/>
            <lane id="E2_1" sampledSeconds="10813.00" traveltime="28.38" overlapTraveltime="29.54" density="8.66" laneDensity="8.66" occupancy="4.26" waitingTime="5417.00" timeLoss="8515.57" speed="3.20" speedRelative="0.19" departed="760" arrived="0" entered="0" left="317" laneChangedFrom="455" laneChangedTo="12"/>
            <lane id="E2_2" sampledSeconds="20807.04" traveltime="58.73" overlapTraveltime="58.96" density="16.66" laneDensity="16.66" occupancy="8.30" waitingTime="15384.00" timeLoss="18721.96" speed="1.60" speedRelative="0.10" departed="0" arrived="0" entered="0" left="443" laneChangedFrom="12" laneChangedTo="455"/>
        </edge>
        <edge id="E3">
            <lane id="E3_0" sampledSeconds="0.00" departed="0" arrived="0" entered="0" left="0" laneChangedFrom="0" laneChangedTo="0"/>
            <lane id="E3_1" sampledSeconds="89310.26" traveltime="97.70" overlapTraveltime="101.32" density="71.51" laneDensity="71.51" occupancy="35.70" waitingTime="67063.00" timeLoss="84016.03" speed="0.93" speedRelative="0.06" departed="1769" arrived="0" entered="0" left="374" laneChangedFrom="1420" laneChangedTo="25"/>
            <lane id="E3_2" sampledSeconds="130669.76" traveltime="170.21" overlapTraveltime="164.99" density="104.63" laneDensity="104.63" occupancy="52.19" waitingTime="93813.00" timeLoss="114142.42" speed="0.57" speedRelative="0.14" departed="0" arrived="0" entered="0" left="1395" laneChangedFrom="25" laneChangedTo="1420"/>
        </edge>
        <edge id="E4">
            <lane id="E4_0" sampledSeconds="0.00" departed="0" arrived="0" entered="0" left="0" laneChangedFrom="0" laneChangedTo="0"/>
            <lane id="E4_1" sampledSeconds="12458.13" traveltime="31.98" overlapTraveltime="33.16" density="9.98" laneDensity="9.98" occupancy="4.92" waitingTime="6803.00" timeLoss="10101.66" speed="2.85" speedRelative="0.17" departed="788" arrived="0" entered="0" left="324" laneChangedFrom="483" laneChangedTo="19"/>
            <lane id="E4_2" sampledSeconds="21220.88" traveltime="57.12" overlapTraveltime="57.39" density="16.99" laneDensity="16.99" occupancy="8.46" waitingTime="15402.00" timeLoss="19040.33" speed="1.65" speedRelative="0.10" departed="0" arrived="0" entered="0" left="464" laneChangedFrom="19" laneChangedTo="483"/>
        </edge>
    </interval>
</meandata>
