<?xml version="1.0" encoding="UTF-8"?>

<!-- generated on 2025-07-20 12:28:27 by Eclipse SUMO sumo Version 1.23.1
<sumoConfiguration xmlns:xsi="http://www.w3.org/2001/XMLSchema-instance" xsi:noNamespaceSchemaLocation="http://sumo.dlr.de/xsd/sumoConfiguration.xsd">

    <input>
        <net-file value="sumo_simulation/sumo_elements/test.net.xml"/>
        <route-files value="sumo_simulation/sumo_elements/test.rou.xml"/>
        <additional-files value="sumo_simulation/sumo_elements/test.add.xml"/>
    </input>

    <output>
        <tripinfo-output value="sumo_simulation/sumo_elements/metrics/20250720_122827_tripinfo_log.xml"/>
    </output>

    <report>
        <log value="sumo_simulation/sumo_elements/metrics/20250720_122827_metrics.log"/>
        <duration-log.statistics value="true"/>
    </report>

    <emissions>
        <device.emissions.probability value="1.0"/>
    </emissions>

    <traci_server>
        <remote-port value="55045"/>
    </traci_server>

</sumoConfiguration>
-->

<meandata xmlns:xsi="http://www.w3.org/2001/XMLSchema-instance" xsi:noNamespaceSchemaLocation="http://sumo.dlr.de/xsd/meandata_file.xsd">
    <interval begin="0.00" end="10165.00" id="01">
        <edge id="-E1">
            <lane id="-E1_0" sampledSeconds="0.00" departed="0" arrived="0" entered="0" left="0" laneChangedFrom="0" laneChangedTo="0"/>
            <lane id="-E1_1" sampledSeconds="2259.21" traveltime="8.00" overlapTraveltime="8.39" density="2.48" laneDensity="2.48" occupancy="1.16" waitingTime="0.00" timeLoss="410.69" speed="11.27" speedRelative="0.81" departed="0" arrived="281" entered="266" left="0" laneChangedFrom="0" laneChangedTo="15"/>
            <lane id="-E1_2" sampledSeconds="3895.59" traveltime="7.38" overlapTraveltime="7.77" density="4.28" laneDensity="4.28" occupancy="2.04" waitingTime="0.00" timeLoss="454.30" speed="12.18" speedRelative="0.88" departed="0" arrived="498" entered="513" left="0" laneChangedFrom="15" laneChangedTo="0"/>
        </edge>
        <edge id="-E2">
            <lane id="-E2_0" sampledSeconds="0.00" departed="0" arrived="0" entered="0" left="0" laneChangedFrom="0" laneChangedTo="0"/>
            <lane id="-E2_1" sampledSeconds="1487.55" traveltime="8.03" overlapTraveltime="8.43" density="1.63" laneDensity="1.63" occupancy="0.76" waitingTime="0.00" timeLoss="262.64" speed="11.23" speedRelative="0.81" departed="0" arrived="180" entered="176" left="0" laneChangedFrom="0" laneChangedTo="4"/>
            <lane id="-E2_2" sampledSeconds="4844.49" traveltime="7.45" overlapTraveltime="7.84" density="5.32" laneDensity="5.32" occupancy="2.52" waitingTime="0.00" timeLoss="596.02" speed="12.07" speedRelative="0.87" departed="0" arrived="623" entered="627" left="0" laneChangedFrom="4" laneChangedTo="0"/>
        </edge>
        <edge id="-E3">
            <lane id="-E3_0" sampledSeconds="0.00" departed="0" arrived="0" entered="0" left="0" laneChangedFrom="0" laneChangedTo="0"/>
            <lane id="-E3_1" sampledSeconds="2227.65" traveltime="8.04" overlapTraveltime="8.43" density="2.45" laneDensity="2.45" occupancy="1.14" waitingTime="0.00" timeLoss="403.44" speed="11.22" speedRelative="0.81" departed="0" arrived="271" entered="264" left="0" laneChangedFrom="0" laneChangedTo="7"/>
            <lane id="-E3_2" sampledSeconds="4016.65" traveltime="7.27" overlapTraveltime="7.66" density="4.41" laneDensity="4.41" occupancy="2.10" waitingTime="0.00" timeLoss="431.00" speed="12.36" speedRelative="0.89" departed="0" arrived="526" entered="533" left="0" laneChangedFrom="7" laneChangedTo="0"/>
        </edge>
        <edge id="-E4">
            <lane id="-E4_0" sampledSeconds="0.00" departed="0" arrived="0" entered="0" left="0" laneChangedFrom="0" laneChangedTo="0"/>
            <lane id="-E4_1" sampledSeconds="1544.97" traveltime="8.00" overlapTraveltime="8.40" density="1.70" laneDensity="1.70" occupancy="0.79" waitingTime="0.00" timeLoss="275.23" speed="11.27" speedRelative="0.81" departed="0" arrived="186" entered="184" left="0" laneChangedFrom="0" laneChangedTo="2"/>
            <lane id="-E4_2" sampledSeconds="4424.89" traveltime="7.39" overlapTraveltime="7.78" density="4.86" laneDensity="4.86" occupancy="2.31" waitingTime="0.00" timeLoss="517.18" speed="12.17" speedRelative="0.88" departed="0" arrived="575" entered="577" left="0" laneChangedFrom="2" laneChangedTo="0"/>
        </edge>
        <edge id="E1">
            <lane id="E1_0" sampledSeconds="0.00" departed="0" arrived="0" entered="0" left="0" laneChangedFrom="0" laneChangedTo="0"/>
            <lane id="E1_1" sampledSeconds="12854.80" traveltime="33.82" overlapTraveltime="35.39" density="14.11" laneDensity="14.11" occupancy="7.01" waitingTime="7566.00" timeLoss="10648.21" speed="2.67" speedRelative="0.16" departed="823" arrived="0" entered="0" left="176" laneChangedFrom="647" laneChangedTo="0"/>
            <lane id="E1_2" sampledSeconds="16113.94" traveltime="38.56" overlapTraveltime="38.81" density="17.69" laneDensity="17.69" occupancy="8.74" waitingTime="10225.00" timeLoss="13582.48" speed="2.44" speedRelative="0.15" departed="0" arrived="0" entered="0" left="647" laneChangedFrom="0" laneChangedTo="647"/>
        </edge>
        <edge id="E2">
            <lane id="E2_0" sampledSeconds="0.00" departed="0" arrived="0" entered="0" left="0" laneChangedFrom="0" laneChangedTo="0"/>
            <lane id="E2_1" sampledSeconds="11720.61" traveltime="31.46" overlapTraveltime="32.75" density="12.87" laneDensity="12.87" occupancy="6.36" waitingTime="6431.00" timeLoss="9506.21" speed="2.89" speedRelative="0.17" departed="760" arrived="0" entered="0" left="264" laneChangedFrom="509" laneChangedTo="13"/>
            <lane id="E2_2" sampledSeconds="14871.16" traveltime="40.89" overlapTraveltime="41.19" density="16.33" laneDensity="16.33" occupancy="8.11" waitingTime="9814.00" timeLoss="12709.78" speed="2.30" speedRelative="0.14" departed="0" arrived="0" entered="0" left="496" laneChangedFrom="13" laneChangedTo="509"/>
        </edge>
        <edge id="E3">
            <lane id="E3_0" sampledSeconds="0.00" departed="0" arrived="0" entered="0" left="0" laneChangedFrom="0" laneChangedTo="0"/>
            <lane id="E3_1" sampledSeconds="11205.70" traveltime="30.89" overlapTraveltime="32.33" density="12.30" laneDensity="12.30" occupancy="6.10" waitingTime="6217.00" timeLoss="9108.58" speed="2.93" speedRelative="0.18" departed="769" arrived="0" entered="0" left="184" laneChangedFrom="586" laneChangedTo="1"/>
            <lane id="E3_2" sampledSeconds="15367.39" traveltime="40.15" overlapTraveltime="40.35" density="16.87" laneDensity="16.87" occupancy="8.37" waitingTime="9896.00" timeLoss="13051.24" speed="2.35" speedRelative="0.14" departed="0" arrived="0" entered="0" left="585" laneChangedFrom="1" laneChangedTo="586"/>
        </edge>
        <edge id="E4">
            <lane id="E4_0" sampledSeconds="0.00" departed="0" arrived="0" entered="0" left="0" laneChangedFrom="0" laneChangedTo="0"/>
            <lane id="E4_1" sampledSeconds="12653.68" traveltime="33.02" overlapTraveltime="34.35" density="13.89" laneDensity="13.89" occupancy="6.87" waitingTime="7151.00" timeLoss="10377.46" speed="2.75" speedRelative="0.17" departed="788" arrived="0" entered="0" left="266" laneChangedFrom="530" laneChangedTo="8"/>
            <lane id="E4_2" sampledSeconds="15553.93" traveltime="40.98" overlapTraveltime="41.25" density="17.08" laneDensity="17.08" occupancy="8.46" waitingTime="10225.00" timeLoss="13302.19" speed="2.29" speedRelative="0.14" departed="0" arrived="0" entered="0" left="522" laneChangedFrom="8" laneChangedTo="530"/>
        </edge>
    </interval>
</meandata>
