<?xml version="1.0" encoding="UTF-8"?>

<!-- generated on 2025-07-20 11:23:47 by Eclipse SUMO sumo Version 1.23.1
<sumoConfiguration xmlns:xsi="http://www.w3.org/2001/XMLSchema-instance" xsi:noNamespaceSchemaLocation="http://sumo.dlr.de/xsd/sumoConfiguration.xsd">

    <input>
        <net-file value="sumo_simulation/sumo_elements/test.net.xml"/>
        <route-files value="sumo_simulation/sumo_elements/test.rou.xml"/>
        <additional-files value="sumo_simulation/sumo_elements/test.add.xml"/>
    </input>

    <output>
        <tripinfo-output value="sumo_simulation/sumo_elements/metrics/20250720_112346_tripinfo_log.xml"/>
    </output>

    <report>
        <log value="sumo_simulation/sumo_elements/metrics/20250720_112346_metrics.log"/>
        <duration-log.statistics value="true"/>
    </report>

    <emissions>
        <device.emissions.probability value="1.0"/>
    </emissions>

    <traci_server>
        <remote-port value="61872"/>
    </traci_server>

</sumoConfiguration>
-->

<meandata xmlns:xsi="http://www.w3.org/2001/XMLSchema-instance" xsi:noNamespaceSchemaLocation="http://sumo.dlr.de/xsd/meandata_file.xsd">
    <interval begin="0.00" end="26324.00" id="01">
        <edge id="-E1">
            <lane id="-E1_0" sampledSeconds="0.00" departed="0" arrived="0" entered="0" left="0" laneChangedFrom="0" laneChangedTo="0"/>
            <lane id="-E1_1" sampledSeconds="2750.46" traveltime="7.98" overlapTraveltime="8.37" density="1.17" laneDensity="1.17" occupancy="0.54" waitingTime="0.00" timeLoss="502.94" speed="11.31" speedRelative="0.81" departed="0" arrived="335" entered="328" left="0" laneChangedFrom="0" laneChangedTo="7"/>
            <lane id="-E1_2" sampledSeconds="22098.33" traveltime="7.19" overlapTraveltime="7.57" density="9.37" laneDensity="9.37" occupancy="4.44" waitingTime="0.00" timeLoss="2001.77" speed="12.49" speedRelative="0.90" departed="0" arrived="2944" entered="2951" left="0" laneChangedFrom="7" laneChangedTo="0"/>
        </edge>
        <edge id="-E2">
            <lane id="-E2_0" sampledSeconds="0.00" departed="0" arrived="0" entered="0" left="0" laneChangedFrom="0" laneChangedTo="0"/>
            <lane id="-E2_1" sampledSeconds="3328.80" traveltime="8.06" overlapTraveltime="8.46" density="1.41" laneDensity="1.41" occupancy="0.66" waitingTime="0.00" timeLoss="602.68" speed="11.18" speedRelative="0.81" departed="0" arrived="398" entered="398" left="0" laneChangedFrom="0" laneChangedTo="0"/>
            <lane id="-E2_2" sampledSeconds="3069.62" traveltime="7.27" overlapTraveltime="7.66" density="1.30" laneDensity="1.30" occupancy="0.62" waitingTime="0.00" timeLoss="322.20" speed="12.36" speedRelative="0.89" departed="0" arrived="405" entered="405" left="0" laneChangedFrom="0" laneChangedTo="0"/>
        </edge>
        <edge id="-E3">
            <lane id="-E3_0" sampledSeconds="0.00" departed="0" arrived="0" entered="0" left="0" laneChangedFrom="0" laneChangedTo="0"/>
            <lane id="-E3_1" sampledSeconds="2759.22" traveltime="8.03" overlapTraveltime="8.42" density="1.17" laneDensity="1.17" occupancy="0.55" waitingTime="0.00" timeLoss="501.78" speed="11.24" speedRelative="0.81" departed="0" arrived="337" entered="328" left="0" laneChangedFrom="0" laneChangedTo="9"/>
            <lane id="-E3_2" sampledSeconds="22208.21" traveltime="7.18" overlapTraveltime="7.57" density="9.42" laneDensity="9.42" occupancy="4.46" waitingTime="0.00" timeLoss="2023.63" speed="12.50" speedRelative="0.90" departed="0" arrived="2960" entered="2969" left="0" laneChangedFrom="9" laneChangedTo="0"/>
        </edge>
        <edge id="-E4">
            <lane id="-E4_0" sampledSeconds="0.00" departed="0" arrived="0" entered="0" left="0" laneChangedFrom="0" laneChangedTo="0"/>
            <lane id="-E4_1" sampledSeconds="3117.68" traveltime="8.01" overlapTraveltime="8.40" density="1.32" laneDensity="1.32" occupancy="0.62" waitingTime="0.00" timeLoss="570.02" speed="11.26" speedRelative="0.81" departed="0" arrived="375" entered="375" left="0" laneChangedFrom="0" laneChangedTo="0"/>
            <lane id="-E4_2" sampledSeconds="2911.67" traveltime="7.23" overlapTraveltime="7.62" density="1.23" laneDensity="1.23" occupancy="0.59" waitingTime="0.00" timeLoss="281.06" speed="12.42" speedRelative="0.89" departed="0" arrived="386" entered="386" left="0" laneChangedFrom="0" laneChangedTo="0"/>
        </edge>
        <edge id="E1">
            <lane id="E1_0" sampledSeconds="0.00" departed="0" arrived="0" entered="0" left="0" laneChangedFrom="0" laneChangedTo="0"/>
            <lane id="E1_1" sampledSeconds="159765.23" traveltime="101.29" overlapTraveltime="105.80" density="67.74" laneDensity="67.74" occupancy="33.85" waitingTime="101878.00" timeLoss="125381.79" speed="0.89" speedRelative="0.21" departed="3323" arrived="0" entered="0" left="398" laneChangedFrom="2941" laneChangedTo="16"/>
            <lane id="E1_2" sampledSeconds="267148.58" traveltime="168.97" overlapTraveltime="163.53" density="113.26" laneDensity="113.26" occupancy="56.37" waitingTime="190836.00" timeLoss="232967.26" speed="0.58" speedRelative="0.14" departed="0" arrived="0" entered="0" left="2925" laneChangedFrom="16" laneChangedTo="2941"/>
        </edge>
        <edge id="E2">
            <lane id="E2_0" sampledSeconds="0.00" departed="0" arrived="0" entered="0" left="0" laneChangedFrom="0" laneChangedTo="0"/>
            <lane id="E2_1" sampledSeconds="10542.83" traveltime="27.52" overlapTraveltime="28.66" density="4.47" laneDensity="4.47" occupancy="2.20" waitingTime="5121.00" timeLoss="8227.31" speed="3.30" speedRelative="0.20" departed="760" arrived="0" entered="0" left="328" laneChangedFrom="449" laneChangedTo="17"/>
            <lane id="E2_2" sampledSeconds="21762.33" traveltime="61.74" overlapTraveltime="61.98" density="9.23" laneDensity="9.23" occupancy="4.60" waitingTime="16234.00" timeLoss="19692.27" speed="1.53" speedRelative="0.09" departed="0" arrived="0" entered="0" left="432" laneChangedFrom="17" laneChangedTo="449"/>
        </edge>
        <edge id="E3">
            <lane id="E3_0" sampledSeconds="0.00" departed="0" arrived="0" entered="0" left="0" laneChangedFrom="0" laneChangedTo="0"/>
            <lane id="E3_1" sampledSeconds="165459.13" traveltime="106.27" overlapTraveltime="111.01" density="70.15" laneDensity="70.15" occupancy="35.05" waitingTime="126951.00" timeLoss="156674.80" speed="0.85" speedRelative="0.05" departed="3269" arrived="0" entered="0" left="375" laneChangedFrom="2920" laneChangedTo="26"/>
            <lane id="E3_2" sampledSeconds="251953.59" traveltime="162.50" overlapTraveltime="157.26" density="106.82" laneDensity="106.82" occupancy="53.17" waitingTime="177374.00" timeLoss="218463.73" speed="0.60" speedRelative="0.14" departed="0" arrived="0" entered="0" left="2894" laneChangedFrom="26" laneChangedTo="2920"/>
        </edge>
        <edge id="E4">
            <lane id="E4_0" sampledSeconds="0.00" departed="0" arrived="0" entered="0" left="0" laneChangedFrom="0" laneChangedTo="0"/>
            <lane id="E4_1" sampledSeconds="12925.47" traveltime="32.98" overlapTraveltime="34.17" density="5.48" laneDensity="5.48" occupancy="2.70" waitingTime="7199.00" timeLoss="10554.63" speed="2.77" speedRelative="0.17" departed="788" arrived="0" entered="0" left="328" laneChangedFrom="476" laneChangedTo="16"/>
            <lane id="E4_2" sampledSeconds="24192.81" traveltime="65.75" overlapTraveltime="65.90" density="10.26" laneDensity="10.26" occupancy="5.11" waitingTime="18052.00" timeLoss="22028.76" speed="1.44" speedRelative="0.09" departed="0" arrived="0" entered="0" left="460" laneChangedFrom="16" laneChangedTo="476"/>
        </edge>
    </interval>
</meandata>
