<?xml version="1.0" encoding="UTF-8"?>

<!-- generated on 2025-07-20 10:30:30 by Eclipse SUMO sumo Version 1.23.1
<sumoConfiguration xmlns:xsi="http://www.w3.org/2001/XMLSchema-instance" xsi:noNamespaceSchemaLocation="http://sumo.dlr.de/xsd/sumoConfiguration.xsd">

    <input>
        <net-file value="sumo_simulation/sumo_elements/test.net.xml"/>
        <route-files value="sumo_simulation/sumo_elements/test.rou.xml"/>
        <additional-files value="sumo_simulation/sumo_elements/test.add.xml"/>
    </input>

    <output>
        <tripinfo-output value="sumo_simulation/sumo_elements/metrics/20250720_103029_tripinfo_log.xml"/>
    </output>

    <report>
        <log value="sumo_simulation/sumo_elements/metrics/20250720_103029_metrics.log"/>
        <duration-log.statistics value="true"/>
    </report>

    <emissions>
        <device.emissions.probability value="1.0"/>
    </emissions>

    <traci_server>
        <remote-port value="61739"/>
    </traci_server>

</sumoConfiguration>
-->

<meandata xmlns:xsi="http://www.w3.org/2001/XMLSchema-instance" xsi:noNamespaceSchemaLocation="http://sumo.dlr.de/xsd/meandata_file.xsd">
    <interval begin="0.00" end="15082.00" id="01">
        <edge id="-E1">
            <lane id="-E1_0" sampledSeconds="0.00" departed="0" arrived="0" entered="0" left="0" laneChangedFrom="0" laneChangedTo="0"/>
            <lane id="-E1_1" sampledSeconds="2782.10" traveltime="8.00" overlapTraveltime="8.40" density="2.06" laneDensity="2.06" occupancy="0.96" waitingTime="0.00" timeLoss="506.32" speed="11.26" speedRelative="0.81" departed="0" arrived="339" entered="331" left="0" laneChangedFrom="0" laneChangedTo="8"/>
            <lane id="-E1_2" sampledSeconds="10840.89" traveltime="7.20" overlapTraveltime="7.59" density="8.02" laneDensity="8.02" occupancy="3.81" waitingTime="0.00" timeLoss="1002.41" speed="12.47" speedRelative="0.90" departed="0" arrived="1440" entered="1448" left="0" laneChangedFrom="8" laneChangedTo="0"/>
        </edge>
        <edge id="-E2">
            <lane id="-E2_0" sampledSeconds="0.00" departed="0" arrived="0" entered="0" left="0" laneChangedFrom="0" laneChangedTo="0"/>
            <lane id="-E2_1" sampledSeconds="3349.05" traveltime="8.06" overlapTraveltime="8.46" density="2.48" laneDensity="2.48" occupancy="1.16" waitingTime="0.00" timeLoss="605.32" speed="11.19" speedRelative="0.81" departed="0" arrived="400" entered="400" left="0" laneChangedFrom="0" laneChangedTo="0"/>
            <lane id="-E2_2" sampledSeconds="3030.61" traveltime="7.21" overlapTraveltime="7.60" density="2.24" laneDensity="2.24" occupancy="1.07" waitingTime="0.00" timeLoss="297.39" speed="12.46" speedRelative="0.90" departed="0" arrived="403" entered="403" left="0" laneChangedFrom="0" laneChangedTo="0"/>
        </edge>
        <edge id="-E3">
            <lane id="-E3_0" sampledSeconds="0.00" departed="0" arrived="0" entered="0" left="0" laneChangedFrom="0" laneChangedTo="0"/>
            <lane id="-E3_1" sampledSeconds="2728.28" traveltime="8.00" overlapTraveltime="8.39" density="2.02" laneDensity="2.02" occupancy="0.94" waitingTime="0.00" timeLoss="495.37" speed="11.27" speedRelative="0.81" departed="0" arrived="334" entered="324" left="0" laneChangedFrom="0" laneChangedTo="10"/>
            <lane id="-E3_2" sampledSeconds="10985.59" traveltime="7.17" overlapTraveltime="7.56" density="8.13" laneDensity="8.13" occupancy="3.86" waitingTime="0.00" timeLoss="1024.35" speed="12.51" speedRelative="0.90" departed="0" arrived="1463" entered="1473" left="0" laneChangedFrom="10" laneChangedTo="0"/>
        </edge>
        <edge id="-E4">
            <lane id="-E4_0" sampledSeconds="0.00" departed="0" arrived="0" entered="0" left="0" laneChangedFrom="0" laneChangedTo="0"/>
            <lane id="-E4_1" sampledSeconds="3104.06" traveltime="8.03" overlapTraveltime="8.42" density="2.30" laneDensity="2.30" occupancy="1.07" waitingTime="0.00" timeLoss="572.32" speed="11.23" speedRelative="0.81" departed="0" arrived="372" entered="372" left="0" laneChangedFrom="0" laneChangedTo="0"/>
            <lane id="-E4_2" sampledSeconds="2920.31" traveltime="7.21" overlapTraveltime="7.59" density="2.16" laneDensity="2.16" occupancy="1.03" waitingTime="0.00" timeLoss="274.97" speed="12.46" speedRelative="0.90" departed="0" arrived="389" entered="389" left="0" laneChangedFrom="0" laneChangedTo="0"/>
        </edge>
        <edge id="E1">
            <lane id="E1_0" sampledSeconds="0.00" departed="0" arrived="0" entered="0" left="0" laneChangedFrom="0" laneChangedTo="0"/>
            <lane id="E1_1" sampledSeconds="99453.90" traveltime="102.76" overlapTraveltime="106.58" density="73.60" laneDensity="73.60" occupancy="36.74" waitingTime="64057.00" timeLoss="78287.95" speed="0.89" speedRelative="0.21" departed="1823" arrived="0" entered="0" left="400" laneChangedFrom="1433" laneChangedTo="10"/>
            <lane id="E1_2" sampledSeconds="155442.25" traveltime="203.45" overlapTraveltime="196.42" density="115.03" laneDensity="115.03" occupancy="57.43" waitingTime="116814.00" timeLoss="138963.98" speed="0.48" speedRelative="0.12" departed="0" arrived="0" entered="0" left="1423" laneChangedFrom="10" laneChangedTo="1433"/>
        </edge>
        <edge id="E2">
            <lane id="E2_0" sampledSeconds="0.00" departed="0" arrived="0" entered="0" left="0" laneChangedFrom="0" laneChangedTo="0"/>
            <lane id="E2_1" sampledSeconds="9670.56" traveltime="25.16" overlapTraveltime="26.28" density="7.16" laneDensity="7.16" occupancy="3.52" waitingTime="4299.00" timeLoss="7357.16" speed="3.60" speedRelative="0.22" departed="760" arrived="0" entered="0" left="324" laneChangedFrom="449" laneChangedTo="13"/>
            <lane id="E2_2" sampledSeconds="21839.96" traveltime="61.99" overlapTraveltime="62.24" density="16.16" laneDensity="16.16" occupancy="8.06" waitingTime="16352.00" timeLoss="19768.18" speed="1.52" speedRelative="0.09" departed="0" arrived="0" entered="0" left="436" laneChangedFrom="13" laneChangedTo="449"/>
        </edge>
        <edge id="E3">
            <lane id="E3_0" sampledSeconds="0.00" departed="0" arrived="0" entered="0" left="0" laneChangedFrom="0" laneChangedTo="0"/>
            <lane id="E3_1" sampledSeconds="101810.11" traveltime="107.70" overlapTraveltime="111.72" density="75.34" laneDensity="75.34" occupancy="37.66" waitingTime="78272.00" timeLoss="96353.88" speed="0.85" speedRelative="0.05" departed="1769" arrived="0" entered="0" left="372" laneChangedFrom="1424" laneChangedTo="27"/>
            <lane id="E3_2" sampledSeconds="147624.53" traveltime="200.93" overlapTraveltime="193.68" density="109.24" laneDensity="109.24" occupancy="54.43" waitingTime="110152.00" timeLoss="131685.72" speed="0.49" speedRelative="0.12" departed="0" arrived="0" entered="0" left="1397" laneChangedFrom="27" laneChangedTo="1424"/>
        </edge>
        <edge id="E4">
            <lane id="E4_0" sampledSeconds="0.00" departed="0" arrived="0" entered="0" left="0" laneChangedFrom="0" laneChangedTo="0"/>
            <lane id="E4_1" sampledSeconds="11290.43" traveltime="28.67" overlapTraveltime="29.82" density="8.35" laneDensity="8.35" occupancy="4.11" waitingTime="5725.00" timeLoss="8915.80" speed="3.17" speedRelative="0.19" departed="788" arrived="0" entered="0" left="331" laneChangedFrom="470" laneChangedTo="13"/>
            <lane id="E4_2" sampledSeconds="22290.23" traveltime="60.52" overlapTraveltime="60.77" density="16.49" laneDensity="16.49" occupancy="8.22" waitingTime="16479.00" timeLoss="20131.87" speed="1.56" speedRelative="0.09" departed="0" arrived="0" entered="0" left="457" laneChangedFrom="13" laneChangedTo="470"/>
        </edge>
    </interval>
</meandata>
