<?xml version="1.0" encoding="UTF-8"?>

<!-- generated on 2025-07-24 14:07:34 by Eclipse SUMO sumo Version 1.23.1
<sumoConfiguration xmlns:xsi="http://www.w3.org/2001/XMLSchema-instance" xsi:noNamespaceSchemaLocation="http://sumo.dlr.de/xsd/sumoConfiguration.xsd">

    <input>
        <net-file value="sumo_simulation/sumo_elements/test.net.xml"/>
        <route-files value="sumo_simulation/sumo_elements/test.rou.xml"/>
        <additional-files value="sumo_simulation/sumo_elements/test.add.xml"/>
    </input>

    <output>
        <tripinfo-output value="sumo_simulation/sumo_elements/metrics/20250724_140734_tripinfo_log.xml"/>
    </output>

    <report>
        <log value="sumo_simulation/sumo_elements/metrics/20250724_140734_metrics.log"/>
        <duration-log.statistics value="true"/>
    </report>

    <emissions>
        <device.emissions.probability value="1.0"/>
    </emissions>

    <traci_server>
        <remote-port value="54521"/>
    </traci_server>

</sumoConfiguration>
-->

<meandata xmlns:xsi="http://www.w3.org/2001/XMLSchema-instance" xsi:noNamespaceSchemaLocation="http://sumo.dlr.de/xsd/meandata_file.xsd">
    <interval begin="0.00" end="55837.00" id="01">
        <edge id="-E1">
            <lane id="-E1_0" sampledSeconds="0.00" departed="0" arrived="0" entered="0" left="0" laneChangedFrom="0" laneChangedTo="0"/>
            <lane id="-E1_1" sampledSeconds="2495.61" traveltime="8.00" overlapTraveltime="8.39" density="0.50" laneDensity="0.50" occupancy="0.23" waitingTime="0.00" timeLoss="449.53" speed="11.27" speedRelative="0.81" departed="0" arrived="305" entered="295" left="0" laneChangedFrom="0" laneChangedTo="10"/>
            <lane id="-E1_2" sampledSeconds="41048.70" traveltime="7.19" overlapTraveltime="7.57" density="8.20" laneDensity="8.20" occupancy="3.89" waitingTime="0.00" timeLoss="3785.17" speed="12.49" speedRelative="0.90" departed="0" arrived="5474" entered="5484" left="0" laneChangedFrom="10" laneChangedTo="0"/>
        </edge>
        <edge id="-E2">
            <lane id="-E2_0" sampledSeconds="0.00" departed="0" arrived="0" entered="0" left="0" laneChangedFrom="0" laneChangedTo="0"/>
            <lane id="-E2_1" sampledSeconds="3378.55" traveltime="8.06" overlapTraveltime="8.46" density="0.68" laneDensity="0.68" occupancy="0.32" waitingTime="0.00" timeLoss="609.56" speed="11.18" speedRelative="0.81" departed="0" arrived="404" entered="404" left="0" laneChangedFrom="0" laneChangedTo="0"/>
            <lane id="-E2_2" sampledSeconds="2989.71" traveltime="7.19" overlapTraveltime="7.58" density="0.60" laneDensity="0.60" occupancy="0.29" waitingTime="0.00" timeLoss="291.22" speed="12.48" speedRelative="0.90" departed="0" arrived="399" entered="399" left="0" laneChangedFrom="0" laneChangedTo="0"/>
        </edge>
        <edge id="-E3">
            <lane id="-E3_0" sampledSeconds="0.00" departed="0" arrived="0" entered="0" left="0" laneChangedFrom="0" laneChangedTo="0"/>
            <lane id="-E3_1" sampledSeconds="2548.90" traveltime="7.97" overlapTraveltime="8.37" density="0.51" laneDensity="0.51" occupancy="0.24" waitingTime="0.00" timeLoss="464.71" speed="11.31" speedRelative="0.81" departed="0" arrived="313" entered="302" left="0" laneChangedFrom="0" laneChangedTo="11"/>
            <lane id="-E3_2" sampledSeconds="41047.96" traveltime="7.17" overlapTraveltime="7.56" density="8.20" laneDensity="8.20" occupancy="3.89" waitingTime="0.00" timeLoss="3719.58" speed="12.52" speedRelative="0.90" departed="0" arrived="5484" entered="5495" left="0" laneChangedFrom="11" laneChangedTo="0"/>
        </edge>
        <edge id="-E4">
            <lane id="-E4_0" sampledSeconds="0.00" departed="0" arrived="0" entered="0" left="0" laneChangedFrom="0" laneChangedTo="0"/>
            <lane id="-E4_1" sampledSeconds="3168.97" traveltime="8.01" overlapTraveltime="8.40" density="0.63" laneDensity="0.63" occupancy="0.30" waitingTime="0.00" timeLoss="575.45" speed="11.26" speedRelative="0.81" departed="0" arrived="381" entered="381" left="0" laneChangedFrom="0" laneChangedTo="0"/>
            <lane id="-E4_2" sampledSeconds="2856.42" traveltime="7.20" overlapTraveltime="7.59" density="0.57" laneDensity="0.57" occupancy="0.27" waitingTime="0.00" timeLoss="267.67" speed="12.47" speedRelative="0.90" departed="0" arrived="380" entered="380" left="0" laneChangedFrom="0" laneChangedTo="0"/>
        </edge>
        <edge id="E1">
            <lane id="E1_0" sampledSeconds="0.00" departed="0" arrived="0" entered="0" left="0" laneChangedFrom="0" laneChangedTo="0"/>
            <lane id="E1_1" sampledSeconds="347669.07" traveltime="120.51" overlapTraveltime="126.45" density="69.49" laneDensity="69.49" occupancy="34.75" waitingTime="240780.00" timeLoss="284900.74" speed="0.75" speedRelative="0.18" departed="5823" arrived="0" entered="0" left="404" laneChangedFrom="5427" laneChangedTo="8"/>
            <lane id="E1_2" sampledSeconds="583016.19" traveltime="220.94" overlapTraveltime="211.28" density="116.53" laneDensity="116.53" occupancy="58.02" waitingTime="444147.00" timeLoss="525993.18" speed="0.45" speedRelative="0.11" departed="0" arrived="0" entered="0" left="5419" laneChangedFrom="8" laneChangedTo="5427"/>
        </edge>
        <edge id="E2">
            <lane id="E2_0" sampledSeconds="0.00" departed="0" arrived="0" entered="0" left="0" laneChangedFrom="0" laneChangedTo="0"/>
            <lane id="E2_1" sampledSeconds="10880.18" traveltime="28.61" overlapTraveltime="29.79" density="2.17" laneDensity="2.17" occupancy="1.07" waitingTime="5548.00" timeLoss="8602.45" speed="3.18" speedRelative="0.19" departed="760" arrived="0" entered="0" left="302" laneChangedFrom="467" laneChangedTo="9"/>
            <lane id="E2_2" sampledSeconds="18515.11" traveltime="52.12" overlapTraveltime="52.36" density="3.70" laneDensity="3.70" occupancy="1.85" waitingTime="13330.00" timeLoss="16412.19" speed="1.81" speedRelative="0.11" departed="0" arrived="0" entered="0" left="458" laneChangedFrom="9" laneChangedTo="467"/>
        </edge>
        <edge id="E3">
            <lane id="E3_0" sampledSeconds="0.00" departed="0" arrived="0" entered="0" left="0" laneChangedFrom="0" laneChangedTo="0"/>
            <lane id="E3_1" sampledSeconds="362001.97" traveltime="124.36" overlapTraveltime="130.52" density="72.36" laneDensity="72.36" occupancy="36.18" waitingTime="288451.00" timeLoss="345849.36" speed="0.72" speedRelative="0.04" departed="5769" arrived="0" entered="0" left="381" laneChangedFrom="5411" laneChangedTo="23"/>
            <lane id="E3_2" sampledSeconds="553391.00" traveltime="216.00" overlapTraveltime="206.16" density="110.61" laneDensity="110.61" occupancy="55.05" waitingTime="418908.00" timeLoss="498110.88" speed="0.46" speedRelative="0.11" departed="0" arrived="0" entered="0" left="5388" laneChangedFrom="23" laneChangedTo="5411"/>
        </edge>
        <edge id="E4">
            <lane id="E4_0" sampledSeconds="0.00" departed="0" arrived="0" entered="0" left="0" laneChangedFrom="0" laneChangedTo="0"/>
            <lane id="E4_1" sampledSeconds="11860.25" traveltime="30.43" overlapTraveltime="31.66" density="2.37" laneDensity="2.37" occupancy="1.17" waitingTime="6318.00" timeLoss="9530.10" speed="2.99" speedRelative="0.18" departed="788" arrived="0" entered="0" left="295" laneChangedFrom="502" laneChangedTo="9"/>
            <lane id="E4_2" sampledSeconds="19348.82" traveltime="52.01" overlapTraveltime="52.18" density="3.87" laneDensity="3.87" occupancy="1.92" waitingTime="13697.00" timeLoss="17148.52" speed="1.81" speedRelative="0.11" departed="0" arrived="0" entered="0" left="493" laneChangedFrom="9" laneChangedTo="502"/>
        </edge>
    </interval>
</meandata>
