<?xml version="1.0" encoding="UTF-8"?>

<!-- generated on 2025-07-20 12:36:29 by Eclipse SUMO sumo Version 1.23.1
<sumoConfiguration xmlns:xsi="http://www.w3.org/2001/XMLSchema-instance" xsi:noNamespaceSchemaLocation="http://sumo.dlr.de/xsd/sumoConfiguration.xsd">

    <input>
        <net-file value="sumo_simulation/sumo_elements/test.net.xml"/>
        <route-files value="sumo_simulation/sumo_elements/test.rou.xml"/>
        <additional-files value="sumo_simulation/sumo_elements/test.add.xml"/>
    </input>

    <output>
        <tripinfo-output value="sumo_simulation/sumo_elements/metrics/20250720_123629_tripinfo_log.xml"/>
    </output>

    <report>
        <log value="sumo_simulation/sumo_elements/metrics/20250720_123629_metrics.log"/>
        <duration-log.statistics value="true"/>
    </report>

    <emissions>
        <device.emissions.probability value="1.0"/>
    </emissions>

    <traci_server>
        <remote-port value="55074"/>
    </traci_server>

</sumoConfiguration>
-->

<meandata xmlns:xsi="http://www.w3.org/2001/XMLSchema-instance" xsi:noNamespaceSchemaLocation="http://sumo.dlr.de/xsd/meandata_file.xsd">
    <interval begin="0.00" end="10171.00" id="01">
        <edge id="-E1">
            <lane id="-E1_0" sampledSeconds="0.00" departed="0" arrived="0" entered="0" left="0" laneChangedFrom="0" laneChangedTo="0"/>
            <lane id="-E1_1" sampledSeconds="2485.50" traveltime="8.02" overlapTraveltime="8.41" density="2.73" laneDensity="2.73" occupancy="1.27" waitingTime="0.00" timeLoss="459.01" speed="11.25" speedRelative="0.81" departed="0" arrived="303" entered="295" left="0" laneChangedFrom="0" laneChangedTo="8"/>
            <lane id="-E1_2" sampledSeconds="3658.13" traveltime="7.31" overlapTraveltime="7.70" density="4.01" laneDensity="4.01" occupancy="1.91" waitingTime="0.00" timeLoss="392.55" speed="12.30" speedRelative="0.89" departed="0" arrived="476" entered="484" left="0" laneChangedFrom="8" laneChangedTo="0"/>
        </edge>
        <edge id="-E2">
            <lane id="-E2_0" sampledSeconds="0.00" departed="0" arrived="0" entered="0" left="0" laneChangedFrom="0" laneChangedTo="0"/>
            <lane id="-E2_1" sampledSeconds="1882.13" traveltime="8.16" overlapTraveltime="8.57" density="2.07" laneDensity="2.07" occupancy="0.96" waitingTime="0.00" timeLoss="333.25" speed="11.04" speedRelative="0.79" departed="0" arrived="222" entered="221" left="0" laneChangedFrom="0" laneChangedTo="1"/>
            <lane id="-E2_2" sampledSeconds="4481.32" traveltime="7.40" overlapTraveltime="7.79" density="4.92" laneDensity="4.92" occupancy="2.33" waitingTime="0.00" timeLoss="551.37" speed="12.15" speedRelative="0.87" departed="0" arrived="581" entered="582" left="0" laneChangedFrom="1" laneChangedTo="0"/>
        </edge>
        <edge id="-E3">
            <lane id="-E3_0" sampledSeconds="0.00" departed="0" arrived="0" entered="0" left="0" laneChangedFrom="0" laneChangedTo="0"/>
            <lane id="-E3_1" sampledSeconds="2544.69" traveltime="8.00" overlapTraveltime="8.40" density="2.79" laneDensity="2.79" occupancy="1.30" waitingTime="0.00" timeLoss="463.18" speed="11.27" speedRelative="0.81" departed="0" arrived="314" entered="298" left="0" laneChangedFrom="0" laneChangedTo="16"/>
            <lane id="-E3_2" sampledSeconds="3708.74" traveltime="7.25" overlapTraveltime="7.64" density="4.07" laneDensity="4.07" occupancy="1.93" waitingTime="0.00" timeLoss="382.98" speed="12.38" speedRelative="0.89" departed="0" arrived="483" entered="499" left="0" laneChangedFrom="16" laneChangedTo="0"/>
        </edge>
        <edge id="-E4">
            <lane id="-E4_0" sampledSeconds="0.00" departed="0" arrived="0" entered="0" left="0" laneChangedFrom="0" laneChangedTo="0"/>
            <lane id="-E4_1" sampledSeconds="2040.40" traveltime="7.95" overlapTraveltime="8.34" density="2.24" laneDensity="2.24" occupancy="1.04" waitingTime="0.00" timeLoss="364.33" speed="11.34" speedRelative="0.82" departed="0" arrived="247" entered="245" left="0" laneChangedFrom="0" laneChangedTo="2"/>
            <lane id="-E4_2" sampledSeconds="3958.36" traveltime="7.39" overlapTraveltime="7.78" density="4.34" laneDensity="4.34" occupancy="2.07" waitingTime="0.00" timeLoss="457.19" speed="12.16" speedRelative="0.88" departed="0" arrived="514" entered="516" left="0" laneChangedFrom="2" laneChangedTo="0"/>
        </edge>
        <edge id="E1">
            <lane id="E1_0" sampledSeconds="0.00" departed="0" arrived="0" entered="0" left="0" laneChangedFrom="0" laneChangedTo="0"/>
            <lane id="E1_1" sampledSeconds="18247.83" traveltime="49.06" overlapTraveltime="50.93" density="20.02" laneDensity="20.02" occupancy="9.94" waitingTime="7511.00" timeLoss="10062.83" speed="1.86" speedRelative="0.45" departed="823" arrived="0" entered="0" left="221" laneChangedFrom="617" laneChangedTo="15"/>
            <lane id="E1_2" sampledSeconds="26241.46" traveltime="62.20" overlapTraveltime="62.45" density="28.79" laneDensity="28.79" occupancy="14.31" waitingTime="13681.00" timeLoss="17294.29" speed="1.52" speedRelative="0.36" departed="0" arrived="0" entered="0" left="602" laneChangedFrom="15" laneChangedTo="617"/>
        </edge>
        <edge id="E2">
            <lane id="E2_0" sampledSeconds="0.00" departed="0" arrived="0" entered="0" left="0" laneChangedFrom="0" laneChangedTo="0"/>
            <lane id="E2_1" sampledSeconds="11420.57" traveltime="30.27" overlapTraveltime="31.49" density="12.53" laneDensity="12.53" occupancy="6.18" waitingTime="6020.00" timeLoss="9156.48" speed="3.00" speedRelative="0.18" departed="760" arrived="0" entered="0" left="298" laneChangedFrom="476" laneChangedTo="14"/>
            <lane id="E2_2" sampledSeconds="19370.03" traveltime="54.19" overlapTraveltime="54.39" density="21.25" laneDensity="21.25" occupancy="10.62" waitingTime="13973.00" timeLoss="17252.39" speed="1.74" speedRelative="0.10" departed="0" arrived="0" entered="0" left="462" laneChangedFrom="14" laneChangedTo="476"/>
        </edge>
        <edge id="E3">
            <lane id="E3_0" sampledSeconds="0.00" departed="0" arrived="0" entered="0" left="0" laneChangedFrom="0" laneChangedTo="0"/>
            <lane id="E3_1" sampledSeconds="10836.39" traveltime="28.63" overlapTraveltime="29.90" density="11.89" laneDensity="11.89" occupancy="5.88" waitingTime="5561.00" timeLoss="8608.33" speed="3.16" speedRelative="0.19" departed="769" arrived="0" entered="0" left="245" laneChangedFrom="529" laneChangedTo="5"/>
            <lane id="E3_2" sampledSeconds="22595.13" traveltime="61.66" overlapTraveltime="61.91" density="24.79" laneDensity="24.79" occupancy="12.33" waitingTime="11493.00" timeLoss="14783.76" speed="1.53" speedRelative="0.37" departed="0" arrived="0" entered="0" left="524" laneChangedFrom="5" laneChangedTo="529"/>
        </edge>
        <edge id="E4">
            <lane id="E4_0" sampledSeconds="0.00" departed="0" arrived="0" entered="0" left="0" laneChangedFrom="0" laneChangedTo="0"/>
            <lane id="E4_1" sampledSeconds="12166.32" traveltime="31.53" overlapTraveltime="32.77" density="13.35" laneDensity="13.35" occupancy="6.59" waitingTime="6590.00" timeLoss="9855.60" speed="2.89" speedRelative="0.17" departed="788" arrived="0" entered="0" left="295" laneChangedFrom="506" laneChangedTo="13"/>
            <lane id="E4_2" sampledSeconds="19972.38" traveltime="53.19" overlapTraveltime="53.37" density="21.92" laneDensity="21.92" occupancy="10.88" waitingTime="14133.00" timeLoss="17752.56" speed="1.77" speedRelative="0.11" departed="0" arrived="0" entered="0" left="493" laneChangedFrom="13" laneChangedTo="506"/>
        </edge>
    </interval>
</meandata>
