<?xml version="1.0" encoding="UTF-8"?>

<!-- generated on 2025-07-20 11:06:45 by Eclipse SUMO sumo Version 1.23.1
<sumoConfiguration xmlns:xsi="http://www.w3.org/2001/XMLSchema-instance" xsi:noNamespaceSchemaLocation="http://sumo.dlr.de/xsd/sumoConfiguration.xsd">

    <input>
        <net-file value="sumo_simulation/sumo_elements/test.net.xml"/>
        <route-files value="sumo_simulation/sumo_elements/test.rou.xml"/>
        <additional-files value="sumo_simulation/sumo_elements/test.add.xml"/>
    </input>

    <output>
        <tripinfo-output value="sumo_simulation/sumo_elements/metrics/20250720_110644_tripinfo_log.xml"/>
    </output>

    <report>
        <log value="sumo_simulation/sumo_elements/metrics/20250720_110644_metrics.log"/>
        <duration-log.statistics value="true"/>
    </report>

    <emissions>
        <device.emissions.probability value="1.0"/>
    </emissions>

    <traci_server>
        <remote-port value="61826"/>
    </traci_server>

</sumoConfiguration>
-->

<meandata xmlns:xsi="http://www.w3.org/2001/XMLSchema-instance" xsi:noNamespaceSchemaLocation="http://sumo.dlr.de/xsd/meandata_file.xsd">
    <interval begin="0.00" end="34820.00" id="01">
        <edge id="-E1">
            <lane id="-E1_0" sampledSeconds="0.00" departed="0" arrived="0" entered="0" left="0" laneChangedFrom="0" laneChangedTo="0"/>
            <lane id="-E1_1" sampledSeconds="2470.36" traveltime="8.04" overlapTraveltime="8.43" density="0.79" laneDensity="0.79" occupancy="0.37" waitingTime="0.00" timeLoss="450.03" speed="11.22" speedRelative="0.81" departed="0" arrived="302" entered="293" left="0" laneChangedFrom="0" laneChangedTo="9"/>
            <lane id="-E1_2" sampledSeconds="22366.41" traveltime="7.20" overlapTraveltime="7.58" density="7.17" laneDensity="7.17" occupancy="3.40" waitingTime="0.00" timeLoss="2080.67" speed="12.48" speedRelative="0.90" departed="0" arrived="2977" entered="2986" left="0" laneChangedFrom="9" laneChangedTo="0"/>
        </edge>
        <edge id="-E2">
            <lane id="-E2_0" sampledSeconds="0.00" departed="0" arrived="0" entered="0" left="0" laneChangedFrom="0" laneChangedTo="0"/>
            <lane id="-E2_1" sampledSeconds="3370.56" traveltime="8.05" overlapTraveltime="8.45" density="1.08" laneDensity="1.08" occupancy="0.50" waitingTime="0.00" timeLoss="605.73" speed="11.20" speedRelative="0.81" departed="0" arrived="403" entered="403" left="0" laneChangedFrom="0" laneChangedTo="0"/>
            <lane id="-E2_2" sampledSeconds="2981.77" traveltime="7.15" overlapTraveltime="7.54" density="0.96" laneDensity="0.96" occupancy="0.46" waitingTime="0.00" timeLoss="272.93" speed="12.56" speedRelative="0.90" departed="0" arrived="400" entered="400" left="0" laneChangedFrom="0" laneChangedTo="0"/>
        </edge>
        <edge id="-E3">
            <lane id="-E3_0" sampledSeconds="0.00" departed="0" arrived="0" entered="0" left="0" laneChangedFrom="0" laneChangedTo="0"/>
            <lane id="-E3_1" sampledSeconds="2404.87" traveltime="8.01" overlapTraveltime="8.40" density="0.77" laneDensity="0.77" occupancy="0.36" waitingTime="0.00" timeLoss="439.14" speed="11.27" speedRelative="0.81" departed="0" arrived="293" entered="283" left="0" laneChangedFrom="0" laneChangedTo="10"/>
            <lane id="-E3_2" sampledSeconds="22530.07" traveltime="7.18" overlapTraveltime="7.57" density="7.22" laneDensity="7.22" occupancy="3.42" waitingTime="0.00" timeLoss="2059.48" speed="12.50" speedRelative="0.90" departed="0" arrived="3004" entered="3014" left="0" laneChangedFrom="10" laneChangedTo="0"/>
        </edge>
        <edge id="-E4">
            <lane id="-E4_0" sampledSeconds="0.00" departed="0" arrived="0" entered="0" left="0" laneChangedFrom="0" laneChangedTo="0"/>
            <lane id="-E4_1" sampledSeconds="3151.52" traveltime="8.01" overlapTraveltime="8.41" density="1.01" laneDensity="1.01" occupancy="0.47" waitingTime="0.00" timeLoss="574.80" speed="11.25" speedRelative="0.81" departed="0" arrived="379" entered="379" left="0" laneChangedFrom="0" laneChangedTo="0"/>
            <lane id="-E4_2" sampledSeconds="2849.29" traveltime="7.16" overlapTraveltime="7.54" density="0.91" laneDensity="0.91" occupancy="0.44" waitingTime="0.00" timeLoss="251.83" speed="12.55" speedRelative="0.90" departed="0" arrived="382" entered="382" left="0" laneChangedFrom="0" laneChangedTo="0"/>
        </edge>
        <edge id="E1">
            <lane id="E1_0" sampledSeconds="0.00" departed="0" arrived="0" entered="0" left="0" laneChangedFrom="0" laneChangedTo="0"/>
            <lane id="E1_1" sampledSeconds="231718.74" traveltime="128.93" overlapTraveltime="134.76" density="74.27" laneDensity="74.27" occupancy="37.15" waitingTime="164561.00" timeLoss="192517.48" speed="0.70" speedRelative="0.17" departed="3323" arrived="0" entered="0" left="403" laneChangedFrom="2932" laneChangedTo="12"/>
            <lane id="E1_2" sampledSeconds="370680.50" traveltime="274.03" overlapTraveltime="260.28" density="118.81" laneDensity="118.81" occupancy="59.21" waitingTime="293930.00" timeLoss="341311.48" speed="0.36" speedRelative="0.09" departed="0" arrived="0" entered="0" left="2920" laneChangedFrom="12" laneChangedTo="2932"/>
        </edge>
        <edge id="E2">
            <lane id="E2_0" sampledSeconds="0.00" departed="0" arrived="0" entered="0" left="0" laneChangedFrom="0" laneChangedTo="0"/>
            <lane id="E2_1" sampledSeconds="11403.00" traveltime="30.33" overlapTraveltime="31.56" density="3.65" laneDensity="3.65" occupancy="1.80" waitingTime="6053.00" timeLoss="9154.00" speed="3.00" speedRelative="0.18" departed="760" arrived="0" entered="0" left="283" laneChangedFrom="494" laneChangedTo="17"/>
            <lane id="E2_2" sampledSeconds="15960.83" traveltime="44.34" overlapTraveltime="44.64" density="5.12" laneDensity="5.12" occupancy="2.55" waitingTime="10906.00" timeLoss="13826.15" speed="2.12" speedRelative="0.13" departed="0" arrived="0" entered="0" left="477" laneChangedFrom="17" laneChangedTo="494"/>
        </edge>
        <edge id="E3">
            <lane id="E3_0" sampledSeconds="0.00" departed="0" arrived="0" entered="0" left="0" laneChangedFrom="0" laneChangedTo="0"/>
            <lane id="E3_1" sampledSeconds="234845.79" traveltime="129.70" overlapTraveltime="135.62" density="75.27" laneDensity="75.27" occupancy="37.64" waitingTime="189268.00" timeLoss="224685.45" speed="0.70" speedRelative="0.04" departed="3269" arrived="0" entered="0" left="379" laneChangedFrom="2914" laneChangedTo="24"/>
            <lane id="E3_2" sampledSeconds="350758.12" traveltime="272.35" overlapTraveltime="257.72" density="112.43" laneDensity="112.43" occupancy="56.02" waitingTime="277343.00" timeLoss="322822.34" speed="0.37" speedRelative="0.09" departed="0" arrived="0" entered="0" left="2890" laneChangedFrom="24" laneChangedTo="2914"/>
        </edge>
        <edge id="E4">
            <lane id="E4_0" sampledSeconds="0.00" departed="0" arrived="0" entered="0" left="0" laneChangedFrom="0" laneChangedTo="0"/>
            <lane id="E4_1" sampledSeconds="11235.96" traveltime="28.81" overlapTraveltime="30.03" density="3.60" laneDensity="3.60" occupancy="1.78" waitingTime="5692.00" timeLoss="8908.85" speed="3.15" speedRelative="0.19" departed="788" arrived="0" entered="0" left="293" laneChangedFrom="506" laneChangedTo="11"/>
            <lane id="E4_2" sampledSeconds="16288.87" traveltime="43.55" overlapTraveltime="43.87" density="5.22" laneDensity="5.22" occupancy="2.59" waitingTime="10973.00" timeLoss="14084.69" speed="2.16" speedRelative="0.13" departed="0" arrived="0" entered="0" left="495" laneChangedFrom="11" laneChangedTo="506"/>
        </edge>
    </interval>
</meandata>
