<?xml version="1.0" encoding="UTF-8"?>

<!-- generated on 2025-07-24 13:56:41 by Eclipse SUMO sumo Version 1.23.1
<sumoConfiguration xmlns:xsi="http://www.w3.org/2001/XMLSchema-instance" xsi:noNamespaceSchemaLocation="http://sumo.dlr.de/xsd/sumoConfiguration.xsd">

    <input>
        <net-file value="sumo_simulation/sumo_elements/test.net.xml"/>
        <route-files value="sumo_simulation/sumo_elements/test.rou.xml"/>
        <additional-files value="sumo_simulation/sumo_elements/test.add.xml"/>
    </input>

    <output>
        <tripinfo-output value="sumo_simulation/sumo_elements/metrics/20250724_135640_tripinfo_log.xml"/>
    </output>

    <report>
        <log value="sumo_simulation/sumo_elements/metrics/20250724_135640_metrics.log"/>
        <duration-log.statistics value="true"/>
    </report>

    <emissions>
        <device.emissions.probability value="1.0"/>
    </emissions>

    <traci_server>
        <remote-port value="54488"/>
    </traci_server>

</sumoConfiguration>
-->

<meandata xmlns:xsi="http://www.w3.org/2001/XMLSchema-instance" xsi:noNamespaceSchemaLocation="http://sumo.dlr.de/xsd/meandata_file.xsd">
    <interval begin="0.00" end="64233.00" id="01">
        <edge id="-E1">
            <lane id="-E1_0" sampledSeconds="0.00" departed="0" arrived="0" entered="0" left="0" laneChangedFrom="0" laneChangedTo="0"/>
            <lane id="-E1_1" sampledSeconds="2461.55" traveltime="8.03" overlapTraveltime="8.43" density="0.43" laneDensity="0.43" occupancy="0.20" waitingTime="0.00" timeLoss="447.47" speed="11.23" speedRelative="0.81" departed="0" arrived="302" entered="293" left="0" laneChangedFrom="0" laneChangedTo="9"/>
            <lane id="-E1_2" sampledSeconds="41062.05" traveltime="7.18" overlapTraveltime="7.56" density="7.13" laneDensity="7.13" occupancy="3.38" waitingTime="0.00" timeLoss="3765.01" speed="12.51" speedRelative="0.90" departed="0" arrived="5477" entered="5486" left="0" laneChangedFrom="9" laneChangedTo="0"/>
        </edge>
        <edge id="-E2">
            <lane id="-E2_0" sampledSeconds="0.00" departed="0" arrived="0" entered="0" left="0" laneChangedFrom="0" laneChangedTo="0"/>
            <lane id="-E2_1" sampledSeconds="3374.02" traveltime="8.05" overlapTraveltime="8.44" density="0.59" laneDensity="0.59" occupancy="0.27" waitingTime="0.00" timeLoss="605.51" speed="11.20" speedRelative="0.81" departed="0" arrived="404" entered="404" left="0" laneChangedFrom="0" laneChangedTo="0"/>
            <lane id="-E2_2" sampledSeconds="2979.05" traveltime="7.16" overlapTraveltime="7.54" density="0.52" laneDensity="0.52" occupancy="0.25" waitingTime="0.00" timeLoss="273.09" speed="12.55" speedRelative="0.90" departed="0" arrived="399" entered="399" left="0" laneChangedFrom="0" laneChangedTo="0"/>
        </edge>
        <edge id="-E3">
            <lane id="-E3_0" sampledSeconds="0.00" departed="0" arrived="0" entered="0" left="0" laneChangedFrom="0" laneChangedTo="0"/>
            <lane id="-E3_1" sampledSeconds="2343.63" traveltime="8.01" overlapTraveltime="8.40" density="0.41" laneDensity="0.41" occupancy="0.19" waitingTime="0.00" timeLoss="427.28" speed="11.26" speedRelative="0.81" departed="0" arrived="285" entered="280" left="0" laneChangedFrom="0" laneChangedTo="5"/>
            <lane id="-E3_2" sampledSeconds="41256.64" traveltime="7.17" overlapTraveltime="7.56" density="7.17" laneDensity="7.17" occupancy="3.40" waitingTime="0.00" timeLoss="3760.62" speed="12.52" speedRelative="0.90" departed="0" arrived="5512" entered="5517" left="0" laneChangedFrom="5" laneChangedTo="0"/>
        </edge>
        <edge id="-E4">
            <lane id="-E4_0" sampledSeconds="0.00" departed="0" arrived="0" entered="0" left="0" laneChangedFrom="0" laneChangedTo="0"/>
            <lane id="-E4_1" sampledSeconds="3158.72" traveltime="8.00" overlapTraveltime="8.40" density="0.55" laneDensity="0.55" occupancy="0.26" waitingTime="0.00" timeLoss="572.39" speed="11.27" speedRelative="0.81" departed="0" arrived="380" entered="380" left="0" laneChangedFrom="0" laneChangedTo="0"/>
            <lane id="-E4_2" sampledSeconds="2852.96" traveltime="7.17" overlapTraveltime="7.56" density="0.50" laneDensity="0.50" occupancy="0.24" waitingTime="0.00" timeLoss="257.73" speed="12.52" speedRelative="0.90" departed="0" arrived="381" entered="381" left="0" laneChangedFrom="0" laneChangedTo="0"/>
        </edge>
        <edge id="E1">
            <lane id="E1_0" sampledSeconds="0.00" departed="0" arrived="0" entered="0" left="0" laneChangedFrom="0" laneChangedTo="0"/>
            <lane id="E1_1" sampledSeconds="419390.76" traveltime="133.66" overlapTraveltime="140.29" density="72.87" laneDensity="72.87" occupancy="36.43" waitingTime="302381.00" timeLoss="351220.44" speed="0.67" speedRelative="0.16" departed="5823" arrived="0" entered="0" left="404" laneChangedFrom="5430" laneChangedTo="11"/>
            <lane id="E1_2" sampledSeconds="685984.95" traveltime="288.36" overlapTraveltime="272.28" density="119.19" laneDensity="119.19" occupancy="59.38" waitingTime="548753.00" timeLoss="634372.77" speed="0.35" speedRelative="0.08" departed="0" arrived="0" entered="0" left="5419" laneChangedFrom="11" laneChangedTo="5430"/>
        </edge>
        <edge id="E2">
            <lane id="E2_0" sampledSeconds="0.00" departed="0" arrived="0" entered="0" left="0" laneChangedFrom="0" laneChangedTo="0"/>
            <lane id="E2_1" sampledSeconds="11408.08" traveltime="30.29" overlapTraveltime="31.53" density="1.98" laneDensity="1.98" occupancy="0.98" waitingTime="6051.00" timeLoss="9161.46" speed="3.00" speedRelative="0.18" departed="760" arrived="0" entered="0" left="280" laneChangedFrom="495" laneChangedTo="15"/>
            <lane id="E2_2" sampledSeconds="15863.86" traveltime="44.12" overlapTraveltime="44.43" density="2.76" laneDensity="2.76" occupancy="1.38" waitingTime="10806.00" timeLoss="13730.30" speed="2.13" speedRelative="0.13" departed="0" arrived="0" entered="0" left="480" laneChangedFrom="15" laneChangedTo="495"/>
        </edge>
        <edge id="E3">
            <lane id="E3_0" sampledSeconds="0.00" departed="0" arrived="0" entered="0" left="0" laneChangedFrom="0" laneChangedTo="0"/>
            <lane id="E3_1" sampledSeconds="432550.22" traveltime="135.98" overlapTraveltime="142.77" density="75.16" laneDensity="75.16" occupancy="37.58" waitingTime="351997.00" timeLoss="414953.94" speed="0.66" speedRelative="0.04" departed="5769" arrived="0" entered="0" left="380" laneChangedFrom="5406" laneChangedTo="17"/>
            <lane id="E3_2" sampledSeconds="654694.74" traveltime="286.55" overlapTraveltime="269.62" density="113.76" laneDensity="113.76" occupancy="56.66" waitingTime="521273.00" timeLoss="605204.66" speed="0.35" speedRelative="0.08" departed="0" arrived="0" entered="0" left="5389" laneChangedFrom="17" laneChangedTo="5406"/>
        </edge>
        <edge id="E4">
            <lane id="E4_0" sampledSeconds="0.00" departed="0" arrived="0" entered="0" left="0" laneChangedFrom="0" laneChangedTo="0"/>
            <lane id="E4_1" sampledSeconds="11217.46" traveltime="28.79" overlapTraveltime="30.01" density="1.95" laneDensity="1.95" occupancy="0.96" waitingTime="5654.00" timeLoss="8889.78" speed="3.15" speedRelative="0.19" departed="788" arrived="0" entered="0" left="293" laneChangedFrom="507" laneChangedTo="12"/>
            <lane id="E4_2" sampledSeconds="16457.69" traveltime="43.97" overlapTraveltime="44.29" density="2.86" laneDensity="2.86" occupancy="1.42" waitingTime="11054.00" timeLoss="14252.51" speed="2.14" speedRelative="0.13" departed="0" arrived="0" entered="0" left="495" laneChangedFrom="12" laneChangedTo="507"/>
        </edge>
    </interval>
</meandata>
