<?xml version="1.0" encoding="UTF-8"?>

<!-- generated on 2025-07-18 09:52:23 by Eclipse SUMO sumo Version 1.23.1
<sumoConfiguration xmlns:xsi="http://www.w3.org/2001/XMLSchema-instance" xsi:noNamespaceSchemaLocation="http://sumo.dlr.de/xsd/sumoConfiguration.xsd">

    <input>
        <net-file value="sumo_simulation/sumo_elements/test.net.xml"/>
        <route-files value="sumo_simulation/sumo_elements/test.rou.xml"/>
        <additional-files value="sumo_simulation/sumo_elements/test.add.xml"/>
    </input>

    <output>
        <tripinfo-output value="sumo_simulation/sumo_elements/metrics/20250718_095222_adaptive_tripinfo_log.xml"/>
    </output>

    <report>
        <log value="sumo_simulation/sumo_elements/metrics/20250718_095222_adaptive_metrics.log"/>
        <duration-log.statistics value="true"/>
    </report>

    <emissions>
        <device.emissions.probability value="1.0"/>
    </emissions>

    <traci_server>
        <remote-port value="60534"/>
    </traci_server>

</sumoConfiguration>
-->

<meandata xmlns:xsi="http://www.w3.org/2001/XMLSchema-instance" xsi:noNamespaceSchemaLocation="http://sumo.dlr.de/xsd/meandata_file.xsd">
    <interval begin="0.00" end="10160.00" id="01">
        <edge id="-E1">
            <lane id="-E1_0" sampledSeconds="0.00" departed="0" arrived="0" entered="0" left="0" laneChangedFrom="0" laneChangedTo="0"/>
            <lane id="-E1_1" sampledSeconds="2582.57" traveltime="8.03" overlapTraveltime="8.42" density="2.84" laneDensity="2.84" occupancy="1.32" waitingTime="0.00" timeLoss="473.16" speed="11.23" speedRelative="0.81" departed="0" arrived="314" entered="306" left="0" laneChangedFrom="0" laneChangedTo="8"/>
            <lane id="-E1_2" sampledSeconds="3566.15" traveltime="7.29" overlapTraveltime="7.67" density="3.92" laneDensity="3.92" occupancy="1.86" waitingTime="0.00" timeLoss="380.84" speed="12.33" speedRelative="0.89" departed="0" arrived="465" entered="473" left="0" laneChangedFrom="8" laneChangedTo="0"/>
        </edge>
        <edge id="-E2">
            <lane id="-E2_0" sampledSeconds="0.00" departed="0" arrived="0" entered="0" left="0" laneChangedFrom="0" laneChangedTo="0"/>
            <lane id="-E2_1" sampledSeconds="3018.58" traveltime="8.10" overlapTraveltime="8.50" density="3.32" laneDensity="3.32" occupancy="1.55" waitingTime="0.00" timeLoss="550.35" speed="11.13" speedRelative="0.80" departed="0" arrived="359" entered="358" left="0" laneChangedFrom="0" laneChangedTo="1"/>
            <lane id="-E2_2" sampledSeconds="3342.07" traveltime="7.22" overlapTraveltime="7.61" density="3.67" laneDensity="3.67" occupancy="1.75" waitingTime="0.00" timeLoss="338.06" speed="12.43" speedRelative="0.90" departed="0" arrived="444" entered="445" left="0" laneChangedFrom="1" laneChangedTo="0"/>
        </edge>
        <edge id="-E3">
            <lane id="-E3_0" sampledSeconds="0.00" departed="0" arrived="0" entered="0" left="0" laneChangedFrom="0" laneChangedTo="0"/>
            <lane id="-E3_1" sampledSeconds="2575.71" traveltime="7.99" overlapTraveltime="8.38" density="2.83" laneDensity="2.83" occupancy="1.32" waitingTime="0.00" timeLoss="470.41" speed="11.28" speedRelative="0.81" departed="0" arrived="313" entered="307" left="0" laneChangedFrom="0" laneChangedTo="6"/>
            <lane id="-E3_2" sampledSeconds="7398.56" traveltime="7.19" overlapTraveltime="7.58" density="8.13" laneDensity="8.13" occupancy="3.86" waitingTime="0.00" timeLoss="704.96" speed="12.49" speedRelative="0.90" departed="0" arrived="984" entered="990" left="0" laneChangedFrom="6" laneChangedTo="0"/>
        </edge>
        <edge id="-E4">
            <lane id="-E4_0" sampledSeconds="0.00" departed="0" arrived="0" entered="0" left="0" laneChangedFrom="0" laneChangedTo="0"/>
            <lane id="-E4_1" sampledSeconds="1845.91" traveltime="8.01" overlapTraveltime="8.40" density="2.03" laneDensity="2.03" occupancy="0.95" waitingTime="0.00" timeLoss="324.71" speed="11.26" speedRelative="0.81" departed="0" arrived="222" entered="220" left="0" laneChangedFrom="0" laneChangedTo="2"/>
            <lane id="-E4_2" sampledSeconds="4139.94" traveltime="7.37" overlapTraveltime="7.76" density="4.55" laneDensity="4.55" occupancy="2.16" waitingTime="0.00" timeLoss="483.50" speed="12.19" speedRelative="0.88" departed="0" arrived="539" entered="541" left="0" laneChangedFrom="2" laneChangedTo="0"/>
        </edge>
        <edge id="E1">
            <lane id="E1_0" sampledSeconds="0.00" departed="0" arrived="0" entered="0" left="0" laneChangedFrom="0" laneChangedTo="0"/>
            <lane id="E1_1" sampledSeconds="49007.99" traveltime="83.84" overlapTraveltime="86.36" density="53.84" laneDensity="53.84" occupancy="26.85" waitingTime="28832.00" timeLoss="36130.71" speed="1.10" speedRelative="0.26" departed="1323" arrived="0" entered="0" left="358" laneChangedFrom="989" laneChangedTo="24"/>
            <lane id="E1_2" sampledSeconds="83455.99" traveltime="123.20" overlapTraveltime="122.01" density="91.68" laneDensity="91.68" occupancy="45.70" waitingTime="56281.00" timeLoss="68951.01" speed="0.78" speedRelative="0.19" departed="0" arrived="0" entered="0" left="965" laneChangedFrom="24" laneChangedTo="989"/>
        </edge>
        <edge id="E2">
            <lane id="E2_0" sampledSeconds="0.00" departed="0" arrived="0" entered="0" left="0" laneChangedFrom="0" laneChangedTo="0"/>
            <lane id="E2_1" sampledSeconds="11697.91" traveltime="30.92" overlapTraveltime="32.12" density="12.85" laneDensity="12.85" occupancy="6.34" waitingTime="6246.00" timeLoss="9421.43" speed="2.94" speedRelative="0.18" departed="760" arrived="0" entered="0" left="307" laneChangedFrom="469" laneChangedTo="16"/>
            <lane id="E2_2" sampledSeconds="18324.60" traveltime="51.36" overlapTraveltime="51.65" density="20.13" laneDensity="20.13" occupancy="10.02" waitingTime="12991.00" timeLoss="16218.30" speed="1.83" speedRelative="0.11" departed="0" arrived="0" entered="0" left="453" laneChangedFrom="16" laneChangedTo="469"/>
        </edge>
        <edge id="E3">
            <lane id="E3_0" sampledSeconds="0.00" departed="0" arrived="0" entered="0" left="0" laneChangedFrom="0" laneChangedTo="0"/>
            <lane id="E3_1" sampledSeconds="11534.15" traveltime="31.33" overlapTraveltime="32.71" density="12.67" laneDensity="12.67" occupancy="6.27" waitingTime="6392.00" timeLoss="9373.66" speed="2.89" speedRelative="0.17" departed="769" arrived="0" entered="0" left="220" laneChangedFrom="551" laneChangedTo="2"/>
            <lane id="E3_2" sampledSeconds="21052.24" traveltime="55.80" overlapTraveltime="56.18" density="23.13" laneDensity="23.13" occupancy="11.47" waitingTime="9957.00" timeLoss="13044.19" speed="1.68" speedRelative="0.40" departed="0" arrived="0" entered="0" left="549" laneChangedFrom="2" laneChangedTo="551"/>
        </edge>
        <edge id="E4">
            <lane id="E4_0" sampledSeconds="0.00" departed="0" arrived="0" entered="0" left="0" laneChangedFrom="0" laneChangedTo="0"/>
            <lane id="E4_1" sampledSeconds="12358.96" traveltime="31.64" overlapTraveltime="32.86" density="13.58" laneDensity="13.58" occupancy="6.70" waitingTime="6710.00" timeLoss="10010.09" speed="2.88" speedRelative="0.17" departed="788" arrived="0" entered="0" left="306" laneChangedFrom="492" laneChangedTo="10"/>
            <lane id="E4_2" sampledSeconds="21176.43" traveltime="57.20" overlapTraveltime="57.34" density="23.26" laneDensity="23.26" occupancy="11.57" waitingTime="15397.00" timeLoss="18990.27" speed="1.65" speedRelative="0.10" departed="0" arrived="0" entered="0" left="482" laneChangedFrom="10" laneChangedTo="492"/>
        </edge>
    </interval>
</meandata>
