<?xml version="1.0" encoding="UTF-8"?>

<!-- generated on 2025-07-24 14:12:09 by Eclipse SUMO sumo Version 1.23.1
<sumoConfiguration xmlns:xsi="http://www.w3.org/2001/XMLSchema-instance" xsi:noNamespaceSchemaLocation="http://sumo.dlr.de/xsd/sumoConfiguration.xsd">

    <input>
        <net-file value="sumo_simulation/sumo_elements/test.net.xml"/>
        <route-files value="sumo_simulation/sumo_elements/test.rou.xml"/>
        <additional-files value="sumo_simulation/sumo_elements/test.add.xml"/>
    </input>

    <output>
        <tripinfo-output value="sumo_simulation/sumo_elements/metrics/20250724_141208_tripinfo_log.xml"/>
    </output>

    <report>
        <log value="sumo_simulation/sumo_elements/metrics/20250724_141208_metrics.log"/>
        <duration-log.statistics value="true"/>
    </report>

    <emissions>
        <device.emissions.probability value="1.0"/>
    </emissions>

    <traci_server>
        <remote-port value="54547"/>
    </traci_server>

</sumoConfiguration>
-->

<meandata xmlns:xsi="http://www.w3.org/2001/XMLSchema-instance" xsi:noNamespaceSchemaLocation="http://sumo.dlr.de/xsd/meandata_file.xsd">
    <interval begin="0.00" end="47842.00" id="01">
        <edge id="-E1">
            <lane id="-E1_0" sampledSeconds="0.00" departed="0" arrived="0" entered="0" left="0" laneChangedFrom="0" laneChangedTo="0"/>
            <lane id="-E1_1" sampledSeconds="2813.17" traveltime="8.01" overlapTraveltime="8.40" density="0.66" laneDensity="0.66" occupancy="0.31" waitingTime="0.00" timeLoss="517.69" speed="11.26" speedRelative="0.81" departed="0" arrived="342" entered="331" left="0" laneChangedFrom="0" laneChangedTo="11"/>
            <lane id="-E1_2" sampledSeconds="40790.81" traveltime="7.19" overlapTraveltime="7.57" density="9.52" laneDensity="9.52" occupancy="4.51" waitingTime="0.00" timeLoss="3723.44" speed="12.49" speedRelative="0.90" departed="0" arrived="5437" entered="5448" left="0" laneChangedFrom="11" laneChangedTo="0"/>
        </edge>
        <edge id="-E2">
            <lane id="-E2_0" sampledSeconds="0.00" departed="0" arrived="0" entered="0" left="0" laneChangedFrom="0" laneChangedTo="0"/>
            <lane id="-E2_1" sampledSeconds="3364.57" traveltime="8.06" overlapTraveltime="8.46" density="0.78" laneDensity="0.78" occupancy="0.37" waitingTime="0.00" timeLoss="606.30" speed="11.18" speedRelative="0.81" departed="0" arrived="402" entered="402" left="0" laneChangedFrom="0" laneChangedTo="0"/>
            <lane id="-E2_2" sampledSeconds="3016.15" traveltime="7.22" overlapTraveltime="7.61" density="0.70" laneDensity="0.70" occupancy="0.34" waitingTime="0.00" timeLoss="302.59" speed="12.44" speedRelative="0.90" departed="0" arrived="401" entered="401" left="0" laneChangedFrom="0" laneChangedTo="0"/>
        </edge>
        <edge id="-E3">
            <lane id="-E3_0" sampledSeconds="0.00" departed="0" arrived="0" entered="0" left="0" laneChangedFrom="0" laneChangedTo="0"/>
            <lane id="-E3_1" sampledSeconds="2729.33" traveltime="8.01" overlapTraveltime="8.41" density="0.64" laneDensity="0.64" occupancy="0.30" waitingTime="0.00" timeLoss="499.13" speed="11.25" speedRelative="0.81" departed="0" arrived="331" entered="324" left="0" laneChangedFrom="0" laneChangedTo="7"/>
            <lane id="-E3_2" sampledSeconds="40950.92" traveltime="7.18" overlapTraveltime="7.57" density="9.55" laneDensity="9.55" occupancy="4.53" waitingTime="0.00" timeLoss="3721.87" speed="12.50" speedRelative="0.90" departed="0" arrived="5466" entered="5473" left="0" laneChangedFrom="7" laneChangedTo="0"/>
        </edge>
        <edge id="-E4">
            <lane id="-E4_0" sampledSeconds="0.00" departed="0" arrived="0" entered="0" left="0" laneChangedFrom="0" laneChangedTo="0"/>
            <lane id="-E4_1" sampledSeconds="3141.58" traveltime="8.00" overlapTraveltime="8.40" density="0.73" laneDensity="0.73" occupancy="0.34" waitingTime="0.00" timeLoss="570.62" speed="11.26" speedRelative="0.81" departed="0" arrived="378" entered="378" left="0" laneChangedFrom="0" laneChangedTo="0"/>
            <lane id="-E4_2" sampledSeconds="2869.48" traveltime="7.19" overlapTraveltime="7.57" density="0.67" laneDensity="0.67" occupancy="0.32" waitingTime="0.00" timeLoss="263.76" speed="12.50" speedRelative="0.90" departed="0" arrived="383" entered="383" left="0" laneChangedFrom="0" laneChangedTo="0"/>
        </edge>
        <edge id="E1">
            <lane id="E1_0" sampledSeconds="0.00" departed="0" arrived="0" entered="0" left="0" laneChangedFrom="0" laneChangedTo="0"/>
            <lane id="E1_1" sampledSeconds="279650.03" traveltime="104.29" overlapTraveltime="109.40" density="65.24" laneDensity="65.24" occupancy="32.61" waitingTime="180713.00" timeLoss="221189.77" speed="0.86" speedRelative="0.21" departed="5823" arrived="0" entered="0" left="402" laneChangedFrom="5438" laneChangedTo="17"/>
            <lane id="E1_2" sampledSeconds="487091.58" traveltime="170.87" overlapTraveltime="164.96" density="113.63" laneDensity="113.63" occupancy="56.53" waitingTime="347788.00" timeLoss="425627.78" speed="0.57" speedRelative="0.14" departed="0" arrived="0" entered="0" left="5421" laneChangedFrom="17" laneChangedTo="5438"/>
        </edge>
        <edge id="E2">
            <lane id="E2_0" sampledSeconds="0.00" departed="0" arrived="0" entered="0" left="0" laneChangedFrom="0" laneChangedTo="0"/>
            <lane id="E2_1" sampledSeconds="10960.48" traveltime="28.75" overlapTraveltime="29.91" density="2.56" laneDensity="2.56" occupancy="1.26" waitingTime="5539.00" timeLoss="8656.83" speed="3.16" speedRelative="0.19" departed="760" arrived="0" entered="0" left="324" laneChangedFrom="452" laneChangedTo="16"/>
            <lane id="E2_2" sampledSeconds="21804.47" traveltime="61.65" overlapTraveltime="61.87" density="5.09" laneDensity="5.09" occupancy="2.54" waitingTime="16243.00" timeLoss="19723.67" speed="1.53" speedRelative="0.09" departed="0" arrived="0" entered="0" left="436" laneChangedFrom="16" laneChangedTo="452"/>
        </edge>
        <edge id="E3">
            <lane id="E3_0" sampledSeconds="0.00" departed="0" arrived="0" entered="0" left="0" laneChangedFrom="0" laneChangedTo="0"/>
            <lane id="E3_1" sampledSeconds="297530.38" traveltime="110.40" overlapTraveltime="115.84" density="69.41" laneDensity="69.41" occupancy="34.69" waitingTime="229848.00" timeLoss="282553.43" speed="0.82" speedRelative="0.05" departed="5769" arrived="0" entered="0" left="378" laneChangedFrom="5405" laneChangedTo="14"/>
            <lane id="E3_2" sampledSeconds="463725.40" traveltime="166.39" overlapTraveltime="160.49" density="108.18" laneDensity="108.18" occupancy="53.79" waitingTime="326744.00" timeLoss="403627.28" speed="0.59" speedRelative="0.14" departed="0" arrived="0" entered="0" left="5391" laneChangedFrom="14" laneChangedTo="5405"/>
        </edge>
        <edge id="E4">
            <lane id="E4_0" sampledSeconds="0.00" departed="0" arrived="0" entered="0" left="0" laneChangedFrom="0" laneChangedTo="0"/>
            <lane id="E4_1" sampledSeconds="12552.22" traveltime="32.00" overlapTraveltime="33.18" density="2.93" laneDensity="2.93" occupancy="1.44" waitingTime="6840.00" timeLoss="10179.47" speed="2.85" speedRelative="0.17" departed="788" arrived="0" entered="0" left="331" laneChangedFrom="478" laneChangedTo="21"/>
            <lane id="E4_2" sampledSeconds="24171.14" traveltime="65.67" overlapTraveltime="65.85" density="5.64" laneDensity="5.64" occupancy="2.81" waitingTime="18041.00" timeLoss="22010.08" speed="1.44" speedRelative="0.09" departed="0" arrived="0" entered="0" left="457" laneChangedFrom="21" laneChangedTo="478"/>
        </edge>
    </interval>
</meandata>
