<?xml version="1.0" encoding="UTF-8"?>

<!-- generated on 2025-07-18 10:02:34 by Eclipse SUMO sumo Version 1.23.1
<sumoConfiguration xmlns:xsi="http://www.w3.org/2001/XMLSchema-instance" xsi:noNamespaceSchemaLocation="http://sumo.dlr.de/xsd/sumoConfiguration.xsd">

    <input>
        <net-file value="sumo_simulation/sumo_elements/test.net.xml"/>
        <route-files value="sumo_simulation/sumo_elements/test.rou.xml"/>
        <additional-files value="sumo_simulation/sumo_elements/test.add.xml"/>
    </input>

    <output>
        <tripinfo-output value="sumo_simulation/sumo_elements/metrics/20250718_100233_adaptive_tripinfo_log.xml"/>
    </output>

    <report>
        <log value="sumo_simulation/sumo_elements/metrics/20250718_100233_adaptive_metrics.log"/>
        <duration-log.statistics value="true"/>
    </report>

    <emissions>
        <device.emissions.probability value="1.0"/>
    </emissions>

    <traci_server>
        <remote-port value="60567"/>
    </traci_server>

</sumoConfiguration>
-->

<meandata xmlns:xsi="http://www.w3.org/2001/XMLSchema-instance" xsi:noNamespaceSchemaLocation="http://sumo.dlr.de/xsd/meandata_file.xsd">
    <interval begin="0.00" end="13912.00" id="01">
        <edge id="-E1">
            <lane id="-E1_0" sampledSeconds="0.00" departed="0" arrived="0" entered="0" left="0" laneChangedFrom="0" laneChangedTo="0"/>
            <lane id="-E1_1" sampledSeconds="2425.01" traveltime="7.99" overlapTraveltime="8.38" density="1.95" laneDensity="1.95" occupancy="0.91" waitingTime="0.00" timeLoss="446.07" speed="11.28" speedRelative="0.81" departed="0" arrived="296" entered="285" left="0" laneChangedFrom="0" laneChangedTo="11"/>
            <lane id="-E1_2" sampledSeconds="3718.91" traveltime="7.33" overlapTraveltime="7.72" density="2.98" laneDensity="2.98" occupancy="1.42" waitingTime="0.00" timeLoss="406.64" speed="12.25" speedRelative="0.88" departed="0" arrived="483" entered="494" left="0" laneChangedFrom="11" laneChangedTo="0"/>
        </edge>
        <edge id="-E2">
            <lane id="-E2_0" sampledSeconds="0.00" departed="0" arrived="0" entered="0" left="0" laneChangedFrom="0" laneChangedTo="0"/>
            <lane id="-E2_1" sampledSeconds="3234.21" traveltime="8.05" overlapTraveltime="8.44" density="2.59" laneDensity="2.59" occupancy="1.21" waitingTime="0.00" timeLoss="585.33" speed="11.21" speedRelative="0.81" departed="0" arrived="387" entered="386" left="0" laneChangedFrom="0" laneChangedTo="1"/>
            <lane id="-E2_2" sampledSeconds="3136.41" traveltime="7.23" overlapTraveltime="7.62" density="2.52" laneDensity="2.52" occupancy="1.20" waitingTime="0.00" timeLoss="309.75" speed="12.42" speedRelative="0.89" departed="0" arrived="416" entered="417" left="0" laneChangedFrom="1" laneChangedTo="0"/>
        </edge>
        <edge id="-E3">
            <lane id="-E3_0" sampledSeconds="0.00" departed="0" arrived="0" entered="0" left="0" laneChangedFrom="0" laneChangedTo="0"/>
            <lane id="-E3_1" sampledSeconds="2539.88" traveltime="8.02" overlapTraveltime="8.41" density="2.04" laneDensity="2.04" occupancy="0.95" waitingTime="0.00" timeLoss="462.80" speed="11.25" speedRelative="0.81" departed="0" arrived="310" entered="303" left="0" laneChangedFrom="0" laneChangedTo="7"/>
            <lane id="-E3_2" sampledSeconds="11163.74" traveltime="7.18" overlapTraveltime="7.56" density="8.96" laneDensity="8.96" occupancy="4.25" waitingTime="0.00" timeLoss="1047.71" speed="12.51" speedRelative="0.90" departed="0" arrived="1487" entered="1494" left="0" laneChangedFrom="7" laneChangedTo="0"/>
        </edge>
        <edge id="-E4">
            <lane id="-E4_0" sampledSeconds="0.00" departed="0" arrived="0" entered="0" left="0" laneChangedFrom="0" laneChangedTo="0"/>
            <lane id="-E4_1" sampledSeconds="1727.75" traveltime="7.99" overlapTraveltime="8.38" density="1.39" laneDensity="1.39" occupancy="0.65" waitingTime="0.00" timeLoss="306.35" speed="11.28" speedRelative="0.81" departed="0" arrived="209" entered="207" left="0" laneChangedFrom="0" laneChangedTo="2"/>
            <lane id="-E4_2" sampledSeconds="4241.86" traveltime="7.37" overlapTraveltime="7.76" density="3.40" laneDensity="3.40" occupancy="1.62" waitingTime="0.00" timeLoss="490.16" speed="12.19" speedRelative="0.88" departed="0" arrived="552" entered="554" left="0" laneChangedFrom="2" laneChangedTo="0"/>
        </edge>
        <edge id="E1">
            <lane id="E1_0" sampledSeconds="0.00" departed="0" arrived="0" entered="0" left="0" laneChangedFrom="0" laneChangedTo="0"/>
            <lane id="E1_1" sampledSeconds="92800.34" traveltime="101.57" overlapTraveltime="105.32" density="74.45" laneDensity="74.45" occupancy="37.20" waitingTime="59327.00" timeLoss="72846.30" speed="0.90" speedRelative="0.22" departed="1823" arrived="0" entered="0" left="386" laneChangedFrom="1453" laneChangedTo="16"/>
            <lane id="E1_2" sampledSeconds="141307.60" traveltime="172.41" overlapTraveltime="167.54" density="113.36" laneDensity="113.36" occupancy="56.48" waitingTime="102402.00" timeLoss="123621.10" speed="0.56" speedRelative="0.14" departed="0" arrived="0" entered="0" left="1437" laneChangedFrom="16" laneChangedTo="1453"/>
        </edge>
        <edge id="E2">
            <lane id="E2_0" sampledSeconds="0.00" departed="0" arrived="0" entered="0" left="0" laneChangedFrom="0" laneChangedTo="0"/>
            <lane id="E2_1" sampledSeconds="11523.41" traveltime="30.58" overlapTraveltime="31.79" density="9.24" laneDensity="9.24" occupancy="4.56" waitingTime="6106.00" timeLoss="9254.34" speed="2.98" speedRelative="0.18" departed="760" arrived="0" entered="0" left="303" laneChangedFrom="478" laneChangedTo="21"/>
            <lane id="E2_2" sampledSeconds="18340.78" traveltime="51.18" overlapTraveltime="51.46" density="14.71" laneDensity="14.71" occupancy="7.32" waitingTime="13000.00" timeLoss="16225.61" speed="1.84" speedRelative="0.11" departed="0" arrived="0" entered="0" left="457" laneChangedFrom="21" laneChangedTo="478"/>
        </edge>
        <edge id="E3">
            <lane id="E3_0" sampledSeconds="0.00" departed="0" arrived="0" entered="0" left="0" laneChangedFrom="0" laneChangedTo="0"/>
            <lane id="E3_1" sampledSeconds="10897.79" traveltime="29.42" overlapTraveltime="30.79" density="8.74" laneDensity="8.74" occupancy="4.33" waitingTime="5788.00" timeLoss="8741.21" speed="3.07" speedRelative="0.18" departed="769" arrived="0" entered="0" left="207" laneChangedFrom="562" laneChangedTo="0"/>
            <lane id="E3_2" sampledSeconds="19033.95" traveltime="50.51" overlapTraveltime="50.98" density="15.27" laneDensity="15.27" occupancy="7.57" waitingTime="8044.00" timeLoss="11065.99" speed="1.86" speedRelative="0.45" departed="0" arrived="0" entered="0" left="562" laneChangedFrom="0" laneChangedTo="562"/>
        </edge>
        <edge id="E4">
            <lane id="E4_0" sampledSeconds="0.00" departed="0" arrived="0" entered="0" left="0" laneChangedFrom="0" laneChangedTo="0"/>
            <lane id="E4_1" sampledSeconds="13296.11" traveltime="34.79" overlapTraveltime="36.10" density="10.67" laneDensity="10.67" occupancy="5.27" waitingTime="7645.00" timeLoss="11006.75" speed="2.62" speedRelative="0.16" departed="788" arrived="0" entered="0" left="285" laneChangedFrom="520" laneChangedTo="17"/>
            <lane id="E4_2" sampledSeconds="19857.43" traveltime="52.47" overlapTraveltime="52.66" density="15.93" laneDensity="15.93" occupancy="7.92" waitingTime="14014.00" timeLoss="17615.02" speed="1.80" speedRelative="0.11" departed="0" arrived="0" entered="0" left="503" laneChangedFrom="17" laneChangedTo="520"/>
        </edge>
    </interval>
</meandata>
