<?xml version="1.0" encoding="UTF-8"?>

<!-- generated on 2025-07-18 10:08:17 by Eclipse SUMO sumo Version 1.23.1
<sumoConfiguration xmlns:xsi="http://www.w3.org/2001/XMLSchema-instance" xsi:noNamespaceSchemaLocation="http://sumo.dlr.de/xsd/sumoConfiguration.xsd">

    <input>
        <net-file value="sumo_simulation/sumo_elements/test.net.xml"/>
        <route-files value="sumo_simulation/sumo_elements/test.rou.xml"/>
        <additional-files value="sumo_simulation/sumo_elements/test.add.xml"/>
    </input>

    <output>
        <tripinfo-output value="sumo_simulation/sumo_elements/metrics/20250718_100816_adaptive_tripinfo_log.xml"/>
    </output>

    <report>
        <log value="sumo_simulation/sumo_elements/metrics/20250718_100816_adaptive_metrics.log"/>
        <duration-log.statistics value="true"/>
    </report>

    <emissions>
        <device.emissions.probability value="1.0"/>
    </emissions>

    <traci_server>
        <remote-port value="60596"/>
    </traci_server>

</sumoConfiguration>
-->

<meandata xmlns:xsi="http://www.w3.org/2001/XMLSchema-instance" xsi:noNamespaceSchemaLocation="http://sumo.dlr.de/xsd/meandata_file.xsd">
    <interval begin="0.00" end="14941.00" id="01">
        <edge id="-E1">
            <lane id="-E1_0" sampledSeconds="0.00" departed="0" arrived="0" entered="0" left="0" laneChangedFrom="0" laneChangedTo="0"/>
            <lane id="-E1_1" sampledSeconds="2487.00" traveltime="8.05" overlapTraveltime="8.44" density="1.86" laneDensity="1.86" occupancy="0.87" waitingTime="0.00" timeLoss="457.57" speed="11.21" speedRelative="0.81" departed="0" arrived="302" entered="293" left="0" laneChangedFrom="0" laneChangedTo="9"/>
            <lane id="-E1_2" sampledSeconds="3657.25" traveltime="7.29" overlapTraveltime="7.68" density="2.73" laneDensity="2.73" occupancy="1.30" waitingTime="0.00" timeLoss="395.01" speed="12.32" speedRelative="0.89" departed="0" arrived="477" entered="486" left="0" laneChangedFrom="9" laneChangedTo="0"/>
        </edge>
        <edge id="-E2">
            <lane id="-E2_0" sampledSeconds="0.00" departed="0" arrived="0" entered="0" left="0" laneChangedFrom="0" laneChangedTo="0"/>
            <lane id="-E2_1" sampledSeconds="3283.84" traveltime="8.09" overlapTraveltime="8.49" density="2.45" laneDensity="2.45" occupancy="1.14" waitingTime="0.00" timeLoss="602.54" speed="11.14" speedRelative="0.80" departed="0" arrived="391" entered="391" left="0" laneChangedFrom="0" laneChangedTo="0"/>
            <lane id="-E2_2" sampledSeconds="3084.17" traveltime="7.20" overlapTraveltime="7.58" density="2.30" laneDensity="2.30" occupancy="1.10" waitingTime="0.00" timeLoss="300.30" speed="12.48" speedRelative="0.90" departed="0" arrived="412" entered="412" left="0" laneChangedFrom="0" laneChangedTo="0"/>
        </edge>
        <edge id="-E3">
            <lane id="-E3_0" sampledSeconds="0.00" departed="0" arrived="0" entered="0" left="0" laneChangedFrom="0" laneChangedTo="0"/>
            <lane id="-E3_1" sampledSeconds="2512.39" traveltime="8.01" overlapTraveltime="8.40" density="1.88" laneDensity="1.88" occupancy="0.88" waitingTime="0.00" timeLoss="461.51" speed="11.27" speedRelative="0.81" departed="0" arrived="307" entered="295" left="0" laneChangedFrom="0" laneChangedTo="12"/>
            <lane id="-E3_2" sampledSeconds="11264.03" traveltime="7.23" overlapTraveltime="7.62" density="8.41" laneDensity="8.41" occupancy="3.99" waitingTime="0.00" timeLoss="1055.93" speed="12.42" speedRelative="0.89" departed="0" arrived="1490" entered="1502" left="0" laneChangedFrom="12" laneChangedTo="0"/>
        </edge>
        <edge id="-E4">
            <lane id="-E4_0" sampledSeconds="0.00" departed="0" arrived="0" entered="0" left="0" laneChangedFrom="0" laneChangedTo="0"/>
            <lane id="-E4_1" sampledSeconds="1622.69" traveltime="7.98" overlapTraveltime="8.38" density="1.21" laneDensity="1.21" occupancy="0.57" waitingTime="0.00" timeLoss="289.59" speed="11.29" speedRelative="0.81" departed="0" arrived="196" entered="193" left="0" laneChangedFrom="0" laneChangedTo="3"/>
            <lane id="-E4_2" sampledSeconds="4346.22" traveltime="7.39" overlapTraveltime="7.77" density="3.25" laneDensity="3.25" occupancy="1.54" waitingTime="0.00" timeLoss="504.55" speed="12.17" speedRelative="0.88" departed="0" arrived="565" entered="568" left="0" laneChangedFrom="3" laneChangedTo="0"/>
        </edge>
        <edge id="E1">
            <lane id="E1_0" sampledSeconds="0.00" departed="0" arrived="0" entered="0" left="0" laneChangedFrom="0" laneChangedTo="0"/>
            <lane id="E1_1" sampledSeconds="100606.70" traveltime="107.23" overlapTraveltime="111.19" density="75.15" laneDensity="75.15" occupancy="37.56" waitingTime="66041.00" timeLoss="79984.63" speed="0.85" speedRelative="0.20" departed="1823" arrived="0" entered="0" left="391" laneChangedFrom="1450" laneChangedTo="18"/>
            <lane id="E1_2" sampledSeconds="153045.03" traveltime="192.76" overlapTraveltime="186.71" density="114.32" laneDensity="114.32" occupancy="56.99" waitingTime="113955.00" timeLoss="135813.48" speed="0.51" speedRelative="0.12" departed="0" arrived="0" entered="0" left="1432" laneChangedFrom="18" laneChangedTo="1450"/>
        </edge>
        <edge id="E2">
            <lane id="E2_0" sampledSeconds="0.00" departed="0" arrived="0" entered="0" left="0" laneChangedFrom="0" laneChangedTo="0"/>
            <lane id="E2_1" sampledSeconds="11988.50" traveltime="31.90" overlapTraveltime="33.14" density="8.96" laneDensity="8.96" occupancy="4.42" waitingTime="6575.00" timeLoss="9731.28" speed="2.85" speedRelative="0.17" departed="760" arrived="0" entered="0" left="295" laneChangedFrom="484" laneChangedTo="19"/>
            <lane id="E2_2" sampledSeconds="16653.71" traveltime="46.30" overlapTraveltime="46.63" density="12.44" laneDensity="12.44" occupancy="6.19" waitingTime="11461.00" timeLoss="14527.30" speed="2.03" speedRelative="0.12" departed="0" arrived="0" entered="0" left="465" laneChangedFrom="19" laneChangedTo="484"/>
        </edge>
        <edge id="E3">
            <lane id="E3_0" sampledSeconds="0.00" departed="0" arrived="0" entered="0" left="0" laneChangedFrom="0" laneChangedTo="0"/>
            <lane id="E3_1" sampledSeconds="12392.96" traveltime="34.24" overlapTraveltime="35.76" density="9.26" laneDensity="9.26" occupancy="4.59" waitingTime="7240.00" timeLoss="10288.87" speed="2.65" speedRelative="0.16" departed="769" arrived="0" entered="0" left="193" laneChangedFrom="579" laneChangedTo="3"/>
            <lane id="E3_2" sampledSeconds="21684.32" traveltime="56.71" overlapTraveltime="56.94" density="16.20" laneDensity="16.20" occupancy="8.03" waitingTime="10331.00" timeLoss="13551.49" speed="1.66" speedRelative="0.40" departed="0" arrived="0" entered="0" left="576" laneChangedFrom="3" laneChangedTo="579"/>
        </edge>
        <edge id="E4">
            <lane id="E4_0" sampledSeconds="0.00" departed="0" arrived="0" entered="0" left="0" laneChangedFrom="0" laneChangedTo="0"/>
            <lane id="E4_1" sampledSeconds="13079.38" traveltime="33.99" overlapTraveltime="35.26" density="9.77" laneDensity="9.77" occupancy="4.83" waitingTime="7452.00" timeLoss="10769.10" speed="2.68" speedRelative="0.16" departed="788" arrived="0" entered="0" left="293" laneChangedFrom="510" laneChangedTo="15"/>
            <lane id="E4_2" sampledSeconds="18290.50" traveltime="48.59" overlapTraveltime="48.84" density="13.66" laneDensity="13.66" occupancy="6.78" waitingTime="12585.00" timeLoss="16069.19" speed="1.94" speedRelative="0.12" departed="0" arrived="0" entered="0" left="495" laneChangedFrom="15" laneChangedTo="510"/>
        </edge>
    </interval>
</meandata>
