<?xml version="1.0" encoding="UTF-8"?>

<!-- generated on 2025-07-24 13:34:05 by Eclipse SUMO sumo Version 1.23.1
<sumoConfiguration xmlns:xsi="http://www.w3.org/2001/XMLSchema-instance" xsi:noNamespaceSchemaLocation="http://sumo.dlr.de/xsd/sumoConfiguration.xsd">

    <input>
        <net-file value="sumo_simulation/sumo_elements/test.net.xml"/>
        <route-files value="sumo_simulation/sumo_elements/test.rou.xml"/>
        <additional-files value="sumo_simulation/sumo_elements/test.add.xml"/>
    </input>

    <output>
        <tripinfo-output value="sumo_simulation/sumo_elements/metrics/20250724_133405_tripinfo_log.xml"/>
    </output>

    <report>
        <log value="sumo_simulation/sumo_elements/metrics/20250724_133405_metrics.log"/>
        <duration-log.statistics value="true"/>
    </report>

    <emissions>
        <device.emissions.probability value="1.0"/>
    </emissions>

    <traci_server>
        <remote-port value="54384"/>
    </traci_server>

</sumoConfiguration>
-->

<meandata xmlns:xsi="http://www.w3.org/2001/XMLSchema-instance" xsi:noNamespaceSchemaLocation="http://sumo.dlr.de/xsd/meandata_file.xsd">
    <interval begin="0.00" end="32094.00" id="01">
        <edge id="-E1">
            <lane id="-E1_0" sampledSeconds="0.00" departed="0" arrived="0" entered="0" left="0" laneChangedFrom="0" laneChangedTo="0"/>
            <lane id="-E1_1" sampledSeconds="2557.26" traveltime="7.99" overlapTraveltime="8.38" density="0.89" laneDensity="0.89" occupancy="0.42" waitingTime="0.00" timeLoss="467.36" speed="11.29" speedRelative="0.81" departed="0" arrived="318" entered="306" left="0" laneChangedFrom="0" laneChangedTo="12"/>
            <lane id="-E1_2" sampledSeconds="22312.35" traveltime="7.20" overlapTraveltime="7.59" density="7.76" laneDensity="7.76" occupancy="3.68" waitingTime="0.00" timeLoss="2064.39" speed="12.46" speedRelative="0.90" departed="0" arrived="2961" entered="2973" left="0" laneChangedFrom="12" laneChangedTo="0"/>
        </edge>
        <edge id="-E2">
            <lane id="-E2_0" sampledSeconds="0.00" departed="0" arrived="0" entered="0" left="0" laneChangedFrom="0" laneChangedTo="0"/>
            <lane id="-E2_1" sampledSeconds="3376.52" traveltime="8.07" overlapTraveltime="8.46" density="1.17" laneDensity="1.17" occupancy="0.55" waitingTime="0.00" timeLoss="609.57" speed="11.18" speedRelative="0.80" departed="0" arrived="403" entered="403" left="0" laneChangedFrom="0" laneChangedTo="0"/>
            <lane id="-E2_2" sampledSeconds="2979.17" traveltime="7.15" overlapTraveltime="7.53" density="1.04" laneDensity="1.04" occupancy="0.50" waitingTime="0.00" timeLoss="274.33" speed="12.56" speedRelative="0.90" departed="0" arrived="400" entered="400" left="0" laneChangedFrom="0" laneChangedTo="0"/>
        </edge>
        <edge id="-E3">
            <lane id="-E3_0" sampledSeconds="0.00" departed="0" arrived="0" entered="0" left="0" laneChangedFrom="0" laneChangedTo="0"/>
            <lane id="-E3_1" sampledSeconds="2525.13" traveltime="7.98" overlapTraveltime="8.38" density="0.88" laneDensity="0.88" occupancy="0.41" waitingTime="0.00" timeLoss="458.48" speed="11.29" speedRelative="0.81" departed="0" arrived="307" entered="303" left="0" laneChangedFrom="0" laneChangedTo="4"/>
            <lane id="-E3_2" sampledSeconds="22472.90" traveltime="7.21" overlapTraveltime="7.59" density="7.81" laneDensity="7.81" occupancy="3.70" waitingTime="0.00" timeLoss="2057.05" speed="12.46" speedRelative="0.90" departed="0" arrived="2990" entered="2994" left="0" laneChangedFrom="4" laneChangedTo="0"/>
        </edge>
        <edge id="-E4">
            <lane id="-E4_0" sampledSeconds="0.00" departed="0" arrived="0" entered="0" left="0" laneChangedFrom="0" laneChangedTo="0"/>
            <lane id="-E4_1" sampledSeconds="3118.82" traveltime="8.00" overlapTraveltime="8.39" density="1.08" laneDensity="1.08" occupancy="0.51" waitingTime="0.00" timeLoss="567.29" speed="11.27" speedRelative="0.81" departed="0" arrived="375" entered="375" left="0" laneChangedFrom="0" laneChangedTo="0"/>
            <lane id="-E4_2" sampledSeconds="2882.97" traveltime="7.16" overlapTraveltime="7.55" density="1.00" laneDensity="1.00" occupancy="0.48" waitingTime="0.00" timeLoss="254.67" speed="12.54" speedRelative="0.90" departed="0" arrived="386" entered="386" left="0" laneChangedFrom="0" laneChangedTo="0"/>
        </edge>
        <edge id="E1">
            <lane id="E1_0" sampledSeconds="0.00" departed="0" arrived="0" entered="0" left="0" laneChangedFrom="0" laneChangedTo="0"/>
            <lane id="E1_1" sampledSeconds="208203.86" traveltime="122.56" overlapTraveltime="128.03" density="72.40" laneDensity="72.40" occupancy="36.21" waitingTime="144647.00" timeLoss="170985.86" speed="0.74" speedRelative="0.18" departed="3323" arrived="0" entered="0" left="403" laneChangedFrom="2935" laneChangedTo="15"/>
            <lane id="E1_2" sampledSeconds="337324.47" traveltime="232.07" overlapTraveltime="222.28" density="117.30" laneDensity="117.30" occupancy="58.42" waitingTime="260266.00" timeLoss="305803.10" speed="0.43" speedRelative="0.10" departed="0" arrived="0" entered="0" left="2920" laneChangedFrom="15" laneChangedTo="2935"/>
        </edge>
        <edge id="E2">
            <lane id="E2_0" sampledSeconds="0.00" departed="0" arrived="0" entered="0" left="0" laneChangedFrom="0" laneChangedTo="0"/>
            <lane id="E2_1" sampledSeconds="10038.54" traveltime="26.34" overlapTraveltime="27.49" density="3.49" laneDensity="3.49" occupancy="1.72" waitingTime="4729.00" timeLoss="7756.94" speed="3.44" speedRelative="0.21" departed="760" arrived="0" entered="0" left="303" laneChangedFrom="472" laneChangedTo="15"/>
            <lane id="E2_2" sampledSeconds="17288.55" traveltime="48.59" overlapTraveltime="48.88" density="6.01" laneDensity="6.01" occupancy="3.00" waitingTime="12218.00" timeLoss="15185.31" speed="1.94" speedRelative="0.12" departed="0" arrived="0" entered="0" left="457" laneChangedFrom="15" laneChangedTo="472"/>
        </edge>
        <edge id="E3">
            <lane id="E3_0" sampledSeconds="0.00" departed="0" arrived="0" entered="0" left="0" laneChangedFrom="0" laneChangedTo="0"/>
            <lane id="E3_1" sampledSeconds="217554.41" traveltime="127.15" overlapTraveltime="132.90" density="75.65" laneDensity="75.65" occupancy="37.82" waitingTime="174076.00" timeLoss="207920.59" speed="0.71" speedRelative="0.04" departed="3269" arrived="0" entered="0" left="375" laneChangedFrom="2917" laneChangedTo="23"/>
            <lane id="E3_2" sampledSeconds="321293.11" traveltime="231.16" overlapTraveltime="220.71" density="111.73" laneDensity="111.73" occupancy="55.64" waitingTime="246832.00" timeLoss="291168.76" speed="0.43" speedRelative="0.10" departed="0" arrived="0" entered="0" left="2894" laneChangedFrom="23" laneChangedTo="2917"/>
        </edge>
        <edge id="E4">
            <lane id="E4_0" sampledSeconds="0.00" departed="0" arrived="0" entered="0" left="0" laneChangedFrom="0" laneChangedTo="0"/>
            <lane id="E4_1" sampledSeconds="11634.81" traveltime="29.75" overlapTraveltime="30.95" density="4.05" laneDensity="4.05" occupancy="2.00" waitingTime="6034.00" timeLoss="9294.23" speed="3.06" speedRelative="0.18" departed="788" arrived="0" entered="0" left="306" laneChangedFrom="492" laneChangedTo="10"/>
            <lane id="E4_2" sampledSeconds="19406.15" traveltime="52.32" overlapTraveltime="52.52" density="6.75" laneDensity="6.75" occupancy="3.36" waitingTime="13837.00" timeLoss="17215.38" speed="1.80" speedRelative="0.11" departed="0" arrived="0" entered="0" left="482" laneChangedFrom="10" laneChangedTo="492"/>
        </edge>
    </interval>
</meandata>
