<?xml version="1.0" encoding="UTF-8"?>

<!-- generated on 2025-07-18 09:46:20 by Eclipse SUMO sumo Version 1.23.1
<sumoConfiguration xmlns:xsi="http://www.w3.org/2001/XMLSchema-instance" xsi:noNamespaceSchemaLocation="http://sumo.dlr.de/xsd/sumoConfiguration.xsd">

    <input>
        <net-file value="sumo_simulation/sumo_elements/test.net.xml"/>
        <route-files value="sumo_simulation/sumo_elements/test.rou.xml"/>
        <additional-files value="sumo_simulation/sumo_elements/test.add.xml"/>
    </input>

    <output>
        <tripinfo-output value="sumo_simulation/sumo_elements/metrics/20250718_094620_adaptive_tripinfo_log.xml"/>
    </output>

    <report>
        <log value="sumo_simulation/sumo_elements/metrics/20250718_094620_adaptive_metrics.log"/>
        <duration-log.statistics value="true"/>
    </report>

    <emissions>
        <device.emissions.probability value="1.0"/>
    </emissions>

    <traci_server>
        <remote-port value="60521"/>
    </traci_server>

</sumoConfiguration>
-->

<meandata xmlns:xsi="http://www.w3.org/2001/XMLSchema-instance" xsi:noNamespaceSchemaLocation="http://sumo.dlr.de/xsd/meandata_file.xsd">
    <interval begin="0.00" end="10133.00" id="01">
        <edge id="-E1">
            <lane id="-E1_0" sampledSeconds="0.00" departed="0" arrived="0" entered="0" left="0" laneChangedFrom="0" laneChangedTo="0"/>
            <lane id="-E1_1" sampledSeconds="2495.13" traveltime="8.00" overlapTraveltime="8.39" density="2.75" laneDensity="2.75" occupancy="1.28" waitingTime="0.00" timeLoss="464.37" speed="11.27" speedRelative="0.81" departed="0" arrived="305" entered="297" left="0" laneChangedFrom="0" laneChangedTo="8"/>
            <lane id="-E1_2" sampledSeconds="3649.57" traveltime="7.32" overlapTraveltime="7.71" density="4.02" laneDensity="4.02" occupancy="1.91" waitingTime="0.00" timeLoss="387.91" speed="12.28" speedRelative="0.88" departed="0" arrived="474" entered="482" left="0" laneChangedFrom="8" laneChangedTo="0"/>
        </edge>
        <edge id="-E2">
            <lane id="-E2_0" sampledSeconds="0.00" departed="0" arrived="0" entered="0" left="0" laneChangedFrom="0" laneChangedTo="0"/>
            <lane id="-E2_1" sampledSeconds="2512.41" traveltime="8.13" overlapTraveltime="8.53" density="2.77" laneDensity="2.77" occupancy="1.29" waitingTime="0.00" timeLoss="451.17" speed="11.09" speedRelative="0.80" departed="0" arrived="298" entered="296" left="0" laneChangedFrom="0" laneChangedTo="2"/>
            <lane id="-E2_2" sampledSeconds="3858.65" traveltime="7.34" overlapTraveltime="7.72" density="4.25" laneDensity="4.25" occupancy="2.02" waitingTime="0.00" timeLoss="449.09" speed="12.25" speedRelative="0.88" departed="0" arrived="505" entered="507" left="0" laneChangedFrom="2" laneChangedTo="0"/>
        </edge>
        <edge id="-E3">
            <lane id="-E3_0" sampledSeconds="0.00" departed="0" arrived="0" entered="0" left="0" laneChangedFrom="0" laneChangedTo="0"/>
            <lane id="-E3_1" sampledSeconds="2552.43" traveltime="8.01" overlapTraveltime="8.41" density="2.81" laneDensity="2.81" occupancy="1.31" waitingTime="0.00" timeLoss="465.74" speed="11.25" speedRelative="0.81" departed="0" arrived="309" entered="303" left="0" laneChangedFrom="0" laneChangedTo="6"/>
            <lane id="-E3_2" sampledSeconds="7461.14" traveltime="7.23" overlapTraveltime="7.62" density="8.22" laneDensity="8.22" occupancy="3.90" waitingTime="0.00" timeLoss="734.81" speed="12.42" speedRelative="0.89" departed="0" arrived="988" entered="994" left="0" laneChangedFrom="6" laneChangedTo="0"/>
        </edge>
        <edge id="-E4">
            <lane id="-E4_0" sampledSeconds="0.00" departed="0" arrived="0" entered="0" left="0" laneChangedFrom="0" laneChangedTo="0"/>
            <lane id="-E4_1" sampledSeconds="1729.80" traveltime="8.01" overlapTraveltime="8.40" density="1.91" laneDensity="1.91" occupancy="0.89" waitingTime="0.00" timeLoss="311.87" speed="11.26" speedRelative="0.81" departed="0" arrived="208" entered="208" left="0" laneChangedFrom="0" laneChangedTo="0"/>
            <lane id="-E4_2" sampledSeconds="4247.23" traveltime="7.38" overlapTraveltime="7.77" density="4.68" laneDensity="4.68" occupancy="2.22" waitingTime="0.00" timeLoss="490.04" speed="12.18" speedRelative="0.88" departed="0" arrived="553" entered="553" left="0" laneChangedFrom="0" laneChangedTo="0"/>
        </edge>
        <edge id="E1">
            <lane id="E1_0" sampledSeconds="0.00" departed="0" arrived="0" entered="0" left="0" laneChangedFrom="0" laneChangedTo="0"/>
            <lane id="E1_1" sampledSeconds="25405.81" traveltime="58.82" overlapTraveltime="60.69" density="27.98" laneDensity="27.98" occupancy="13.90" waitingTime="12241.00" timeLoss="15887.59" speed="1.56" speedRelative="0.37" departed="1323" arrived="0" entered="0" left="296" laneChangedFrom="1057" laneChangedTo="30"/>
            <lane id="E1_2" sampledSeconds="60884.81" traveltime="72.59" overlapTraveltime="73.10" density="67.06" laneDensity="67.06" occupancy="33.34" waitingTime="33001.00" timeLoss="42969.24" speed="1.29" speedRelative="0.31" departed="0" arrived="0" entered="0" left="1027" laneChangedFrom="30" laneChangedTo="1057"/>
        </edge>
        <edge id="E2">
            <lane id="E2_0" sampledSeconds="0.00" departed="0" arrived="0" entered="0" left="0" laneChangedFrom="0" laneChangedTo="0"/>
            <lane id="E2_1" sampledSeconds="11896.27" traveltime="31.52" overlapTraveltime="32.74" density="13.10" laneDensity="13.10" occupancy="6.47" waitingTime="6400.00" timeLoss="9621.78" speed="2.89" speedRelative="0.17" departed="760" arrived="0" entered="0" left="303" laneChangedFrom="472" laneChangedTo="15"/>
            <lane id="E2_2" sampledSeconds="18463.89" traveltime="51.65" overlapTraveltime="51.94" density="20.34" laneDensity="20.34" occupancy="10.17" waitingTime="13107.00" timeLoss="16351.52" speed="1.82" speedRelative="0.11" departed="0" arrived="0" entered="0" left="457" laneChangedFrom="15" laneChangedTo="472"/>
        </edge>
        <edge id="E3">
            <lane id="E3_0" sampledSeconds="0.00" departed="0" arrived="0" entered="0" left="0" laneChangedFrom="0" laneChangedTo="0"/>
            <lane id="E3_1" sampledSeconds="11035.35" traveltime="29.93" overlapTraveltime="31.30" density="12.15" laneDensity="12.15" occupancy="6.02" waitingTime="5923.00" timeLoss="8884.77" speed="3.02" speedRelative="0.18" departed="769" arrived="0" entered="0" left="208" laneChangedFrom="562" laneChangedTo="1"/>
            <lane id="E3_2" sampledSeconds="19346.34" traveltime="51.19" overlapTraveltime="51.62" density="21.31" laneDensity="21.31" occupancy="10.57" waitingTime="8331.00" timeLoss="11340.47" speed="1.83" speedRelative="0.44" departed="0" arrived="0" entered="0" left="561" laneChangedFrom="1" laneChangedTo="562"/>
        </edge>
        <edge id="E4">
            <lane id="E4_0" sampledSeconds="0.00" departed="0" arrived="0" entered="0" left="0" laneChangedFrom="0" laneChangedTo="0"/>
            <lane id="E4_1" sampledSeconds="13130.67" traveltime="34.08" overlapTraveltime="35.35" density="14.46" laneDensity="14.46" occupancy="7.15" waitingTime="7454.00" timeLoss="10816.01" speed="2.68" speedRelative="0.16" departed="788" arrived="0" entered="0" left="297" laneChangedFrom="511" laneChangedTo="20"/>
            <lane id="E4_2" sampledSeconds="19483.24" traveltime="51.87" overlapTraveltime="52.10" density="21.46" laneDensity="21.46" occupancy="10.67" waitingTime="13779.00" timeLoss="17265.17" speed="1.82" speedRelative="0.11" departed="0" arrived="0" entered="0" left="491" laneChangedFrom="20" laneChangedTo="511"/>
        </edge>
    </interval>
</meandata>
