<?xml version="1.0" encoding="UTF-8"?>

<!-- generated on 2025-07-20 12:30:14 by Eclipse SUMO sumo Version 1.23.1
<sumoConfiguration xmlns:xsi="http://www.w3.org/2001/XMLSchema-instance" xsi:noNamespaceSchemaLocation="http://sumo.dlr.de/xsd/sumoConfiguration.xsd">

    <input>
        <net-file value="sumo_simulation/sumo_elements/test.net.xml"/>
        <route-files value="sumo_simulation/sumo_elements/test.rou.xml"/>
        <additional-files value="sumo_simulation/sumo_elements/test.add.xml"/>
    </input>

    <output>
        <tripinfo-output value="sumo_simulation/sumo_elements/metrics/20250720_123013_tripinfo_log.xml"/>
    </output>

    <report>
        <log value="sumo_simulation/sumo_elements/metrics/20250720_123013_metrics.log"/>
        <duration-log.statistics value="true"/>
    </report>

    <emissions>
        <device.emissions.probability value="1.0"/>
    </emissions>

    <traci_server>
        <remote-port value="55053"/>
    </traci_server>

</sumoConfiguration>
-->

<meandata xmlns:xsi="http://www.w3.org/2001/XMLSchema-instance" xsi:noNamespaceSchemaLocation="http://sumo.dlr.de/xsd/meandata_file.xsd">
    <interval begin="0.00" end="10154.00" id="01">
        <edge id="-E1">
            <lane id="-E1_0" sampledSeconds="0.00" departed="0" arrived="0" entered="0" left="0" laneChangedFrom="0" laneChangedTo="0"/>
            <lane id="-E1_1" sampledSeconds="2589.66" traveltime="8.02" overlapTraveltime="8.41" density="2.85" laneDensity="2.85" occupancy="1.33" waitingTime="0.00" timeLoss="466.80" speed="11.25" speedRelative="0.81" departed="0" arrived="317" entered="304" left="0" laneChangedFrom="0" laneChangedTo="13"/>
            <lane id="-E1_2" sampledSeconds="3571.41" traveltime="7.33" overlapTraveltime="7.72" density="3.93" laneDensity="3.93" occupancy="1.87" waitingTime="0.00" timeLoss="404.20" speed="12.26" speedRelative="0.88" departed="0" arrived="462" entered="475" left="0" laneChangedFrom="13" laneChangedTo="0"/>
        </edge>
        <edge id="-E2">
            <lane id="-E2_0" sampledSeconds="0.00" departed="0" arrived="0" entered="0" left="0" laneChangedFrom="0" laneChangedTo="0"/>
            <lane id="-E2_1" sampledSeconds="1797.23" traveltime="8.05" overlapTraveltime="8.45" density="1.98" laneDensity="1.98" occupancy="0.92" waitingTime="0.00" timeLoss="322.92" speed="11.19" speedRelative="0.81" departed="0" arrived="216" entered="212" left="0" laneChangedFrom="0" laneChangedTo="4"/>
            <lane id="-E2_2" sampledSeconds="4535.19" traveltime="7.40" overlapTraveltime="7.79" density="4.98" laneDensity="4.98" occupancy="2.36" waitingTime="0.00" timeLoss="535.62" speed="12.14" speedRelative="0.87" departed="0" arrived="587" entered="591" left="0" laneChangedFrom="4" laneChangedTo="0"/>
        </edge>
        <edge id="-E3">
            <lane id="-E3_0" sampledSeconds="0.00" departed="0" arrived="0" entered="0" left="0" laneChangedFrom="0" laneChangedTo="0"/>
            <lane id="-E3_1" sampledSeconds="2347.09" traveltime="8.00" overlapTraveltime="8.39" density="2.58" laneDensity="2.58" occupancy="1.20" waitingTime="0.00" timeLoss="425.17" speed="11.28" speedRelative="0.81" departed="0" arrived="287" entered="281" left="0" laneChangedFrom="0" laneChangedTo="6"/>
            <lane id="-E3_2" sampledSeconds="3915.01" traveltime="7.31" overlapTraveltime="7.70" density="4.30" laneDensity="4.30" occupancy="2.05" waitingTime="0.00" timeLoss="428.51" speed="12.30" speedRelative="0.89" departed="0" arrived="510" entered="516" left="0" laneChangedFrom="6" laneChangedTo="0"/>
        </edge>
        <edge id="-E4">
            <lane id="-E4_0" sampledSeconds="0.00" departed="0" arrived="0" entered="0" left="0" laneChangedFrom="0" laneChangedTo="0"/>
            <lane id="-E4_1" sampledSeconds="1622.96" traveltime="8.01" overlapTraveltime="8.41" density="1.78" laneDensity="1.78" occupancy="0.83" waitingTime="0.00" timeLoss="291.51" speed="11.25" speedRelative="0.81" departed="0" arrived="195" entered="194" left="0" laneChangedFrom="0" laneChangedTo="1"/>
            <lane id="-E4_2" sampledSeconds="4337.14" traveltime="7.36" overlapTraveltime="7.75" density="4.77" laneDensity="4.77" occupancy="2.27" waitingTime="0.00" timeLoss="492.78" speed="12.21" speedRelative="0.88" departed="0" arrived="566" entered="567" left="0" laneChangedFrom="1" laneChangedTo="0"/>
        </edge>
        <edge id="E1">
            <lane id="E1_0" sampledSeconds="0.00" departed="0" arrived="0" entered="0" left="0" laneChangedFrom="0" laneChangedTo="0"/>
            <lane id="E1_1" sampledSeconds="11491.67" traveltime="29.79" overlapTraveltime="31.17" density="12.63" laneDensity="12.63" occupancy="6.26" waitingTime="6205.00" timeLoss="9231.82" speed="3.04" speedRelative="0.18" departed="823" arrived="0" entered="0" left="212" laneChangedFrom="615" laneChangedTo="4"/>
            <lane id="E1_2" sampledSeconds="18056.39" traveltime="43.93" overlapTraveltime="44.06" density="19.85" laneDensity="19.85" occupancy="9.83" waitingTime="12017.00" timeLoss="15571.88" speed="2.15" speedRelative="0.13" departed="0" arrived="0" entered="0" left="611" laneChangedFrom="4" laneChangedTo="615"/>
        </edge>
        <edge id="E2">
            <lane id="E2_0" sampledSeconds="0.00" departed="0" arrived="0" entered="0" left="0" laneChangedFrom="0" laneChangedTo="0"/>
            <lane id="E2_1" sampledSeconds="11156.06" traveltime="29.64" overlapTraveltime="30.88" density="12.26" laneDensity="12.26" occupancy="6.05" waitingTime="5872.00" timeLoss="8910.18" speed="3.06" speedRelative="0.18" departed="760" arrived="0" entered="0" left="281" laneChangedFrom="485" laneChangedTo="6"/>
            <lane id="E2_2" sampledSeconds="16549.20" traveltime="46.03" overlapTraveltime="46.28" density="18.19" laneDensity="18.19" occupancy="9.05" waitingTime="11419.00" timeLoss="14414.69" speed="2.04" speedRelative="0.12" departed="0" arrived="0" entered="0" left="479" laneChangedFrom="6" laneChangedTo="485"/>
        </edge>
        <edge id="E3">
            <lane id="E3_0" sampledSeconds="0.00" departed="0" arrived="0" entered="0" left="0" laneChangedFrom="0" laneChangedTo="0"/>
            <lane id="E3_1" sampledSeconds="11144.21" traveltime="30.73" overlapTraveltime="32.15" density="12.25" laneDensity="12.25" occupancy="6.07" waitingTime="6105.00" timeLoss="9040.35" speed="2.94" speedRelative="0.18" departed="769" arrived="0" entered="0" left="194" laneChangedFrom="576" laneChangedTo="1"/>
            <lane id="E3_2" sampledSeconds="15977.52" traveltime="41.77" overlapTraveltime="41.96" density="17.56" laneDensity="17.56" occupancy="8.70" waitingTime="10481.00" timeLoss="13665.67" speed="2.26" speedRelative="0.14" departed="0" arrived="0" entered="0" left="575" laneChangedFrom="1" laneChangedTo="576"/>
        </edge>
        <edge id="E4">
            <lane id="E4_0" sampledSeconds="0.00" departed="0" arrived="0" entered="0" left="0" laneChangedFrom="0" laneChangedTo="0"/>
            <lane id="E4_1" sampledSeconds="11483.19" traveltime="29.61" overlapTraveltime="30.81" density="12.62" laneDensity="12.62" occupancy="6.23" waitingTime="6008.00" timeLoss="9155.57" speed="3.07" speedRelative="0.18" departed="788" arrived="0" entered="0" left="304" laneChangedFrom="501" laneChangedTo="17"/>
            <lane id="E4_2" sampledSeconds="17668.89" traveltime="47.11" overlapTraveltime="47.41" density="19.42" laneDensity="19.42" occupancy="9.65" waitingTime="12109.00" timeLoss="15464.75" speed="2.00" speedRelative="0.12" departed="0" arrived="0" entered="0" left="484" laneChangedFrom="17" laneChangedTo="501"/>
        </edge>
    </interval>
</meandata>
