<?xml version="1.0" encoding="UTF-8"?>

<!-- generated on 2025-07-20 11:47:41 by Eclipse SUMO sumo Version 1.23.1
<sumoConfiguration xmlns:xsi="http://www.w3.org/2001/XMLSchema-instance" xsi:noNamespaceSchemaLocation="http://sumo.dlr.de/xsd/sumoConfiguration.xsd">

    <input>
        <net-file value="sumo_simulation/sumo_elements/test.net.xml"/>
        <route-files value="sumo_simulation/sumo_elements/test.rou.xml"/>
        <additional-files value="sumo_simulation/sumo_elements/test.add.xml"/>
    </input>

    <output>
        <tripinfo-output value="sumo_simulation/sumo_elements/metrics/20250720_114741_tripinfo_log.xml"/>
    </output>

    <report>
        <log value="sumo_simulation/sumo_elements/metrics/20250720_114741_metrics.log"/>
        <duration-log.statistics value="true"/>
    </report>

    <emissions>
        <device.emissions.probability value="1.0"/>
    </emissions>

    <traci_server>
        <remote-port value="54956"/>
    </traci_server>

</sumoConfiguration>
-->

<meandata xmlns:xsi="http://www.w3.org/2001/XMLSchema-instance" xsi:noNamespaceSchemaLocation="http://sumo.dlr.de/xsd/meandata_file.xsd">
    <interval begin="0.00" end="55900.00" id="01">
        <edge id="-E1">
            <lane id="-E1_0" sampledSeconds="0.00" departed="0" arrived="0" entered="0" left="0" laneChangedFrom="0" laneChangedTo="0"/>
            <lane id="-E1_1" sampledSeconds="2753.56" traveltime="8.01" overlapTraveltime="8.40" density="0.55" laneDensity="0.55" occupancy="0.26" waitingTime="0.00" timeLoss="505.96" speed="11.26" speedRelative="0.81" departed="0" arrived="335" entered="328" left="0" laneChangedFrom="0" laneChangedTo="7"/>
            <lane id="-E1_2" sampledSeconds="40842.28" traveltime="7.19" overlapTraveltime="7.58" density="8.15" laneDensity="8.15" occupancy="3.86" waitingTime="0.00" timeLoss="3743.96" speed="12.49" speedRelative="0.90" departed="0" arrived="5444" entered="5451" left="0" laneChangedFrom="7" laneChangedTo="0"/>
        </edge>
        <edge id="-E2">
            <lane id="-E2_0" sampledSeconds="0.00" departed="0" arrived="0" entered="0" left="0" laneChangedFrom="0" laneChangedTo="0"/>
            <lane id="-E2_1" sampledSeconds="3348.22" traveltime="8.06" overlapTraveltime="8.46" density="0.67" laneDensity="0.67" occupancy="0.31" waitingTime="0.00" timeLoss="604.26" speed="11.18" speedRelative="0.80" departed="0" arrived="400" entered="400" left="0" laneChangedFrom="0" laneChangedTo="0"/>
            <lane id="-E2_2" sampledSeconds="3026.70" traveltime="7.21" overlapTraveltime="7.59" density="0.60" laneDensity="0.60" occupancy="0.29" waitingTime="0.00" timeLoss="298.12" speed="12.46" speedRelative="0.90" departed="0" arrived="403" entered="403" left="0" laneChangedFrom="0" laneChangedTo="0"/>
        </edge>
        <edge id="-E3">
            <lane id="-E3_0" sampledSeconds="0.00" departed="0" arrived="0" entered="0" left="0" laneChangedFrom="0" laneChangedTo="0"/>
            <lane id="-E3_1" sampledSeconds="2744.57" traveltime="8.00" overlapTraveltime="8.39" density="0.55" laneDensity="0.55" occupancy="0.26" waitingTime="0.00" timeLoss="499.24" speed="11.27" speedRelative="0.81" departed="0" arrived="336" entered="326" left="0" laneChangedFrom="0" laneChangedTo="10"/>
            <lane id="-E3_2" sampledSeconds="40858.49" traveltime="7.17" overlapTraveltime="7.55" density="8.16" laneDensity="8.16" occupancy="3.87" waitingTime="0.00" timeLoss="3725.08" speed="12.53" speedRelative="0.90" departed="0" arrived="5461" entered="5471" left="0" laneChangedFrom="10" laneChangedTo="0"/>
        </edge>
        <edge id="-E4">
            <lane id="-E4_0" sampledSeconds="0.00" departed="0" arrived="0" entered="0" left="0" laneChangedFrom="0" laneChangedTo="0"/>
            <lane id="-E4_1" sampledSeconds="3118.19" traveltime="8.00" overlapTraveltime="8.39" density="0.62" laneDensity="0.62" occupancy="0.29" waitingTime="0.00" timeLoss="564.27" speed="11.27" speedRelative="0.81" departed="0" arrived="376" entered="376" left="0" laneChangedFrom="0" laneChangedTo="0"/>
            <lane id="-E4_2" sampledSeconds="2888.36" traveltime="7.20" overlapTraveltime="7.58" density="0.58" laneDensity="0.58" occupancy="0.28" waitingTime="0.00" timeLoss="269.82" speed="12.48" speedRelative="0.90" departed="0" arrived="385" entered="385" left="0" laneChangedFrom="0" laneChangedTo="0"/>
        </edge>
        <edge id="E1">
            <lane id="E1_0" sampledSeconds="0.00" departed="0" arrived="0" entered="0" left="0" laneChangedFrom="0" laneChangedTo="0"/>
            <lane id="E1_1" sampledSeconds="348687.25" traveltime="120.01" overlapTraveltime="125.93" density="69.62" laneDensity="69.62" occupancy="34.81" waitingTime="241094.00" timeLoss="285602.39" speed="0.75" speedRelative="0.18" departed="5823" arrived="0" entered="0" left="400" laneChangedFrom="5432" laneChangedTo="9"/>
            <lane id="E1_2" sampledSeconds="586242.91" traveltime="223.97" overlapTraveltime="213.95" density="117.05" laneDensity="117.05" occupancy="58.26" waitingTime="447591.00" timeLoss="529637.98" speed="0.44" speedRelative="0.11" departed="0" arrived="0" entered="0" left="5423" laneChangedFrom="9" laneChangedTo="5432"/>
        </edge>
        <edge id="E2">
            <lane id="E2_0" sampledSeconds="0.00" departed="0" arrived="0" entered="0" left="0" laneChangedFrom="0" laneChangedTo="0"/>
            <lane id="E2_1" sampledSeconds="9846.42" traveltime="25.65" overlapTraveltime="26.77" density="1.97" laneDensity="1.97" occupancy="0.97" waitingTime="4452.00" timeLoss="7531.28" speed="3.53" speedRelative="0.21" departed="760" arrived="0" entered="0" left="326" laneChangedFrom="449" laneChangedTo="15"/>
            <lane id="E2_2" sampledSeconds="21951.58" traveltime="62.26" overlapTraveltime="62.52" density="4.38" laneDensity="4.38" occupancy="2.19" waitingTime="16470.00" timeLoss="19879.49" speed="1.51" speedRelative="0.09" departed="0" arrived="0" entered="0" left="434" laneChangedFrom="15" laneChangedTo="449"/>
        </edge>
        <edge id="E3">
            <lane id="E3_0" sampledSeconds="0.00" departed="0" arrived="0" entered="0" left="0" laneChangedFrom="0" laneChangedTo="0"/>
            <lane id="E3_1" sampledSeconds="361598.21" traveltime="123.08" overlapTraveltime="129.19" density="72.19" laneDensity="72.19" occupancy="36.09" waitingTime="287831.00" timeLoss="345311.28" speed="0.73" speedRelative="0.04" departed="5769" arrived="0" entered="0" left="376" laneChangedFrom="5403" laneChangedTo="10"/>
            <lane id="E3_2" sampledSeconds="556693.57" traveltime="219.65" overlapTraveltime="209.37" density="111.15" laneDensity="111.15" occupancy="55.33" waitingTime="422781.00" timeLoss="501873.00" speed="0.45" speedRelative="0.11" departed="0" arrived="0" entered="0" left="5393" laneChangedFrom="10" laneChangedTo="5403"/>
        </edge>
        <edge id="E4">
            <lane id="E4_0" sampledSeconds="0.00" departed="0" arrived="0" entered="0" left="0" laneChangedFrom="0" laneChangedTo="0"/>
            <lane id="E4_1" sampledSeconds="11238.81" traveltime="28.52" overlapTraveltime="29.68" density="2.24" laneDensity="2.24" occupancy="1.11" waitingTime="5664.00" timeLoss="8865.04" speed="3.19" speedRelative="0.19" departed="788" arrived="0" entered="0" left="328" laneChangedFrom="471" laneChangedTo="11"/>
            <lane id="E4_2" sampledSeconds="21813.44" traveltime="59.24" overlapTraveltime="59.48" density="4.36" laneDensity="4.36" occupancy="2.17" waitingTime="15987.00" timeLoss="19653.75" speed="1.59" speedRelative="0.10" departed="0" arrived="0" entered="0" left="460" laneChangedFrom="11" laneChangedTo="471"/>
        </edge>
    </interval>
</meandata>
