<?xml version="1.0" encoding="UTF-8"?>

<!-- generated on 2025-07-18 09:43:16 by Eclipse SUMO sumo Version 1.23.1
<sumoConfiguration xmlns:xsi="http://www.w3.org/2001/XMLSchema-instance" xsi:noNamespaceSchemaLocation="http://sumo.dlr.de/xsd/sumoConfiguration.xsd">

    <input>
        <net-file value="sumo_simulation/sumo_elements/test.net.xml"/>
        <route-files value="sumo_simulation/sumo_elements/test.rou.xml"/>
        <additional-files value="sumo_simulation/sumo_elements/test.add.xml"/>
    </input>

    <output>
        <tripinfo-output value="sumo_simulation/sumo_elements/metrics/20250718_094316_adaptive_tripinfo_log.xml"/>
    </output>

    <report>
        <log value="sumo_simulation/sumo_elements/metrics/20250718_094316_adaptive_metrics.log"/>
        <duration-log.statistics value="true"/>
    </report>

    <emissions>
        <device.emissions.probability value="1.0"/>
    </emissions>

    <traci_server>
        <remote-port value="60510"/>
    </traci_server>

</sumoConfiguration>
-->

<meandata xmlns:xsi="http://www.w3.org/2001/XMLSchema-instance" xsi:noNamespaceSchemaLocation="http://sumo.dlr.de/xsd/meandata_file.xsd">
    <interval begin="0.00" end="10168.00" id="01">
        <edge id="-E1">
            <lane id="-E1_0" sampledSeconds="0.00" departed="0" arrived="0" entered="0" left="0" laneChangedFrom="0" laneChangedTo="0"/>
            <lane id="-E1_1" sampledSeconds="2226.60" traveltime="8.01" overlapTraveltime="8.41" density="2.44" laneDensity="2.44" occupancy="1.14" waitingTime="0.00" timeLoss="407.95" speed="11.25" speedRelative="0.81" departed="0" arrived="275" entered="261" left="0" laneChangedFrom="0" laneChangedTo="14"/>
            <lane id="-E1_2" sampledSeconds="3913.03" traveltime="7.35" overlapTraveltime="7.74" density="4.30" laneDensity="4.30" occupancy="2.04" waitingTime="0.00" timeLoss="441.04" speed="12.23" speedRelative="0.88" departed="0" arrived="504" entered="518" left="0" laneChangedFrom="14" laneChangedTo="0"/>
        </edge>
        <edge id="-E2">
            <lane id="-E2_0" sampledSeconds="0.00" departed="0" arrived="0" entered="0" left="0" laneChangedFrom="0" laneChangedTo="0"/>
            <lane id="-E2_1" sampledSeconds="1598.46" traveltime="8.14" overlapTraveltime="8.55" density="1.75" laneDensity="1.75" occupancy="0.82" waitingTime="0.00" timeLoss="278.78" speed="11.07" speedRelative="0.80" departed="0" arrived="189" entered="188" left="0" laneChangedFrom="0" laneChangedTo="1"/>
            <lane id="-E2_2" sampledSeconds="4718.21" traveltime="7.38" overlapTraveltime="7.77" density="5.18" laneDensity="5.18" occupancy="2.46" waitingTime="0.00" timeLoss="566.80" speed="12.18" speedRelative="0.88" departed="0" arrived="614" entered="615" left="0" laneChangedFrom="1" laneChangedTo="0"/>
        </edge>
        <edge id="-E3">
            <lane id="-E3_0" sampledSeconds="0.00" departed="0" arrived="0" entered="0" left="0" laneChangedFrom="0" laneChangedTo="0"/>
            <lane id="-E3_1" sampledSeconds="2202.27" traveltime="8.03" overlapTraveltime="8.42" density="2.42" laneDensity="2.42" occupancy="1.13" waitingTime="0.00" timeLoss="395.64" speed="11.23" speedRelative="0.81" departed="0" arrived="270" entered="262" left="0" laneChangedFrom="0" laneChangedTo="8"/>
            <lane id="-E3_2" sampledSeconds="4031.04" traveltime="7.27" overlapTraveltime="7.66" density="4.42" laneDensity="4.42" occupancy="2.10" waitingTime="0.00" timeLoss="434.78" speed="12.36" speedRelative="0.89" departed="0" arrived="527" entered="535" left="0" laneChangedFrom="8" laneChangedTo="0"/>
        </edge>
        <edge id="-E4">
            <lane id="-E4_0" sampledSeconds="0.00" departed="0" arrived="0" entered="0" left="0" laneChangedFrom="0" laneChangedTo="0"/>
            <lane id="-E4_1" sampledSeconds="1687.74" traveltime="8.00" overlapTraveltime="8.39" density="1.85" laneDensity="1.85" occupancy="0.86" waitingTime="0.00" timeLoss="307.01" speed="11.27" speedRelative="0.81" departed="0" arrived="203" entered="201" left="0" laneChangedFrom="0" laneChangedTo="2"/>
            <lane id="-E4_2" sampledSeconds="4287.06" traveltime="7.37" overlapTraveltime="7.76" density="4.71" laneDensity="4.71" occupancy="2.24" waitingTime="0.00" timeLoss="487.74" speed="12.19" speedRelative="0.88" departed="0" arrived="558" entered="560" left="0" laneChangedFrom="2" laneChangedTo="0"/>
        </edge>
        <edge id="E1">
            <lane id="E1_0" sampledSeconds="0.00" departed="0" arrived="0" entered="0" left="0" laneChangedFrom="0" laneChangedTo="0"/>
            <lane id="E1_1" sampledSeconds="19822.27" traveltime="54.56" overlapTraveltime="56.69" density="21.76" laneDensity="21.76" occupancy="10.82" waitingTime="9261.00" timeLoss="11824.09" speed="1.67" speedRelative="0.40" departed="823" arrived="0" entered="0" left="188" laneChangedFrom="653" laneChangedTo="18"/>
            <lane id="E1_2" sampledSeconds="23630.62" traveltime="54.71" overlapTraveltime="55.11" density="25.94" laneDensity="25.94" occupancy="12.85" waitingTime="10973.00" timeLoss="14498.85" speed="1.72" speedRelative="0.41" departed="0" arrived="0" entered="0" left="635" laneChangedFrom="18" laneChangedTo="653"/>
        </edge>
        <edge id="E2">
            <lane id="E2_0" sampledSeconds="0.00" departed="0" arrived="0" entered="0" left="0" laneChangedFrom="0" laneChangedTo="0"/>
            <lane id="E2_1" sampledSeconds="11896.54" traveltime="31.96" overlapTraveltime="33.28" density="13.06" laneDensity="13.06" occupancy="6.45" waitingTime="6577.00" timeLoss="9685.41" speed="2.84" speedRelative="0.17" departed="760" arrived="0" entered="0" left="262" laneChangedFrom="512" laneChangedTo="14"/>
            <lane id="E2_2" sampledSeconds="14953.97" traveltime="41.08" overlapTraveltime="41.38" density="16.41" laneDensity="16.41" occupancy="8.15" waitingTime="9844.00" timeLoss="12791.43" speed="2.29" speedRelative="0.14" departed="0" arrived="0" entered="0" left="498" laneChangedFrom="14" laneChangedTo="512"/>
        </edge>
        <edge id="E3">
            <lane id="E3_0" sampledSeconds="0.00" departed="0" arrived="0" entered="0" left="0" laneChangedFrom="0" laneChangedTo="0"/>
            <lane id="E3_1" sampledSeconds="12655.67" traveltime="34.52" overlapTraveltime="36.02" density="13.89" laneDensity="13.89" occupancy="6.89" waitingTime="7442.00" timeLoss="10521.57" speed="2.63" speedRelative="0.16" departed="769" arrived="0" entered="0" left="201" laneChangedFrom="570" laneChangedTo="2"/>
            <lane id="E3_2" sampledSeconds="22409.78" traveltime="59.36" overlapTraveltime="59.59" density="24.60" laneDensity="24.60" occupancy="12.21" waitingTime="11074.00" timeLoss="14385.47" speed="1.59" speedRelative="0.38" departed="0" arrived="0" entered="0" left="568" laneChangedFrom="2" laneChangedTo="570"/>
        </edge>
        <edge id="E4">
            <lane id="E4_0" sampledSeconds="0.00" departed="0" arrived="0" entered="0" left="0" laneChangedFrom="0" laneChangedTo="0"/>
            <lane id="E4_1" sampledSeconds="13172.00" traveltime="34.61" overlapTraveltime="35.98" density="14.46" laneDensity="14.46" occupancy="7.15" waitingTime="7638.00" timeLoss="10912.88" speed="2.63" speedRelative="0.16" departed="788" arrived="0" entered="0" left="261" laneChangedFrom="540" laneChangedTo="13"/>
            <lane id="E4_2" sampledSeconds="16359.97" traveltime="42.86" overlapTraveltime="43.13" density="17.96" laneDensity="17.96" occupancy="8.90" waitingTime="10762.00" timeLoss="14094.17" speed="2.19" speedRelative="0.13" departed="0" arrived="0" entered="0" left="527" laneChangedFrom="13" laneChangedTo="540"/>
        </edge>
    </interval>
</meandata>
