<?xml version="1.0" encoding="UTF-8"?>

<!-- generated on 2025-07-18 10:24:44 by Eclipse SUMO sumo Version 1.23.1
<sumoConfiguration xmlns:xsi="http://www.w3.org/2001/XMLSchema-instance" xsi:noNamespaceSchemaLocation="http://sumo.dlr.de/xsd/sumoConfiguration.xsd">

    <input>
        <net-file value="sumo_simulation/sumo_elements/test.net.xml"/>
        <route-files value="sumo_simulation/sumo_elements/test.rou.xml"/>
        <additional-files value="sumo_simulation/sumo_elements/test.add.xml"/>
    </input>

    <output>
        <tripinfo-output value="sumo_simulation/sumo_elements/metrics/20250718_102444_adaptive_tripinfo_log.xml"/>
    </output>

    <report>
        <log value="sumo_simulation/sumo_elements/metrics/20250718_102444_adaptive_metrics.log"/>
        <duration-log.statistics value="true"/>
    </report>

    <emissions>
        <device.emissions.probability value="1.0"/>
    </emissions>

    <traci_server>
        <remote-port value="60656"/>
    </traci_server>

</sumoConfiguration>
-->

<meandata xmlns:xsi="http://www.w3.org/2001/XMLSchema-instance" xsi:noNamespaceSchemaLocation="http://sumo.dlr.de/xsd/meandata_file.xsd">
    <interval begin="0.00" end="19432.00" id="01">
        <edge id="-E1">
            <lane id="-E1_0" sampledSeconds="0.00" departed="0" arrived="0" entered="0" left="0" laneChangedFrom="0" laneChangedTo="0"/>
            <lane id="-E1_1" sampledSeconds="2470.76" traveltime="8.07" overlapTraveltime="8.46" density="1.42" laneDensity="1.42" occupancy="0.66" waitingTime="0.00" timeLoss="454.07" speed="11.18" speedRelative="0.80" departed="0" arrived="300" entered="288" left="0" laneChangedFrom="0" laneChangedTo="12"/>
            <lane id="-E1_2" sampledSeconds="3674.37" traveltime="7.29" overlapTraveltime="7.68" density="2.11" laneDensity="2.11" occupancy="1.00" waitingTime="0.00" timeLoss="401.73" speed="12.32" speedRelative="0.89" departed="0" arrived="479" entered="491" left="0" laneChangedFrom="12" laneChangedTo="0"/>
        </edge>
        <edge id="-E2">
            <lane id="-E2_0" sampledSeconds="0.00" departed="0" arrived="0" entered="0" left="0" laneChangedFrom="0" laneChangedTo="0"/>
            <lane id="-E2_1" sampledSeconds="3297.46" traveltime="8.07" overlapTraveltime="8.46" density="1.89" laneDensity="1.89" occupancy="0.88" waitingTime="0.00" timeLoss="596.72" speed="11.18" speedRelative="0.80" departed="0" arrived="394" entered="394" left="0" laneChangedFrom="0" laneChangedTo="0"/>
            <lane id="-E2_2" sampledSeconds="3059.19" traveltime="7.18" overlapTraveltime="7.56" density="1.76" laneDensity="1.76" occupancy="0.84" waitingTime="0.00" timeLoss="289.89" speed="12.51" speedRelative="0.90" departed="0" arrived="409" entered="409" left="0" laneChangedFrom="0" laneChangedTo="0"/>
        </edge>
        <edge id="-E3">
            <lane id="-E3_0" sampledSeconds="0.00" departed="0" arrived="0" entered="0" left="0" laneChangedFrom="0" laneChangedTo="0"/>
            <lane id="-E3_1" sampledSeconds="2457.73" traveltime="7.98" overlapTraveltime="8.38" density="1.41" laneDensity="1.41" occupancy="0.66" waitingTime="0.00" timeLoss="446.19" speed="11.29" speedRelative="0.81" departed="0" arrived="301" entered="290" left="0" laneChangedFrom="0" laneChangedTo="11"/>
            <lane id="-E3_2" sampledSeconds="14982.15" traveltime="7.18" overlapTraveltime="7.57" density="8.60" laneDensity="8.60" occupancy="4.08" waitingTime="0.00" timeLoss="1396.59" speed="12.50" speedRelative="0.90" departed="0" arrived="1996" entered="2007" left="0" laneChangedFrom="11" laneChangedTo="0"/>
        </edge>
        <edge id="-E4">
            <lane id="-E4_0" sampledSeconds="0.00" departed="0" arrived="0" entered="0" left="0" laneChangedFrom="0" laneChangedTo="0"/>
            <lane id="-E4_1" sampledSeconds="1771.32" traveltime="7.97" overlapTraveltime="8.36" density="1.02" laneDensity="1.02" occupancy="0.48" waitingTime="0.00" timeLoss="313.98" speed="11.32" speedRelative="0.81" departed="0" arrived="215" entered="213" left="0" laneChangedFrom="0" laneChangedTo="2"/>
            <lane id="-E4_2" sampledSeconds="4195.39" traveltime="7.37" overlapTraveltime="7.76" density="2.41" laneDensity="2.41" occupancy="1.15" waitingTime="0.00" timeLoss="479.61" speed="12.19" speedRelative="0.88" departed="0" arrived="546" entered="548" left="0" laneChangedFrom="2" laneChangedTo="0"/>
        </edge>
        <edge id="E1">
            <lane id="E1_0" sampledSeconds="0.00" departed="0" arrived="0" entered="0" left="0" laneChangedFrom="0" laneChangedTo="0"/>
            <lane id="E1_1" sampledSeconds="126850.34" traveltime="108.82" overlapTraveltime="113.22" density="72.86" laneDensity="72.86" occupancy="36.41" waitingTime="83938.00" timeLoss="101377.99" speed="0.84" speedRelative="0.20" departed="2323" arrived="0" entered="0" left="394" laneChangedFrom="1939" laneChangedTo="10"/>
            <lane id="E1_2" sampledSeconds="199223.83" traveltime="191.38" overlapTraveltime="184.95" density="114.42" laneDensity="114.42" occupancy="57.01" waitingTime="147772.00" timeLoss="176782.26" speed="0.51" speedRelative="0.12" departed="0" arrived="0" entered="0" left="1929" laneChangedFrom="10" laneChangedTo="1939"/>
        </edge>
        <edge id="E2">
            <lane id="E2_0" sampledSeconds="0.00" departed="0" arrived="0" entered="0" left="0" laneChangedFrom="0" laneChangedTo="0"/>
            <lane id="E2_1" sampledSeconds="12103.35" traveltime="32.29" overlapTraveltime="33.54" density="6.95" laneDensity="6.95" occupancy="3.43" waitingTime="6637.00" timeLoss="9856.38" speed="2.82" speedRelative="0.17" departed="760" arrived="0" entered="0" left="290" laneChangedFrom="487" laneChangedTo="17"/>
            <lane id="E2_2" sampledSeconds="17077.43" traveltime="47.39" overlapTraveltime="47.70" density="9.81" laneDensity="9.81" occupancy="4.89" waitingTime="11721.00" timeLoss="14943.90" speed="1.98" speedRelative="0.12" departed="0" arrived="0" entered="0" left="470" laneChangedFrom="17" laneChangedTo="487"/>
        </edge>
        <edge id="E3">
            <lane id="E3_0" sampledSeconds="0.00" departed="0" arrived="0" entered="0" left="0" laneChangedFrom="0" laneChangedTo="0"/>
            <lane id="E3_1" sampledSeconds="12858.89" traveltime="35.52" overlapTraveltime="37.00" density="7.39" laneDensity="7.39" occupancy="3.66" waitingTime="7697.00" timeLoss="10740.43" speed="2.56" speedRelative="0.15" departed="769" arrived="0" entered="0" left="213" laneChangedFrom="559" laneChangedTo="3"/>
            <lane id="E3_2" sampledSeconds="22549.83" traveltime="59.06" overlapTraveltime="59.36" density="12.95" laneDensity="12.95" occupancy="6.43" waitingTime="11155.00" timeLoss="14422.59" speed="1.59" speedRelative="0.38" departed="0" arrived="0" entered="0" left="556" laneChangedFrom="3" laneChangedTo="559"/>
        </edge>
        <edge id="E4">
            <lane id="E4_0" sampledSeconds="0.00" departed="0" arrived="0" entered="0" left="0" laneChangedFrom="0" laneChangedTo="0"/>
            <lane id="E4_1" sampledSeconds="12915.58" traveltime="33.53" overlapTraveltime="34.82" density="7.42" laneDensity="7.42" occupancy="3.67" waitingTime="7259.00" timeLoss="10607.00" speed="2.72" speedRelative="0.16" departed="788" arrived="0" entered="0" left="288" laneChangedFrom="515" laneChangedTo="15"/>
            <lane id="E4_2" sampledSeconds="18362.52" traveltime="48.81" overlapTraveltime="49.03" density="10.55" laneDensity="10.55" occupancy="5.23" waitingTime="12631.00" timeLoss="16140.02" speed="1.93" speedRelative="0.12" departed="0" arrived="0" entered="0" left="500" laneChangedFrom="15" laneChangedTo="515"/>
        </edge>
    </interval>
</meandata>
