<?xml version="1.0" encoding="UTF-8"?>

<!-- generated on 2025-07-20 12:27:35 by Eclipse SUMO sumo Version 1.23.1
<sumoConfiguration xmlns:xsi="http://www.w3.org/2001/XMLSchema-instance" xsi:noNamespaceSchemaLocation="http://sumo.dlr.de/xsd/sumoConfiguration.xsd">

    <input>
        <net-file value="sumo_simulation/sumo_elements/test.net.xml"/>
        <route-files value="sumo_simulation/sumo_elements/test.rou.xml"/>
        <additional-files value="sumo_simulation/sumo_elements/test.add.xml"/>
    </input>

    <output>
        <tripinfo-output value="sumo_simulation/sumo_elements/metrics/20250720_122735_tripinfo_log.xml"/>
    </output>

    <report>
        <log value="sumo_simulation/sumo_elements/metrics/20250720_122735_metrics.log"/>
        <duration-log.statistics value="true"/>
    </report>

    <emissions>
        <device.emissions.probability value="1.0"/>
    </emissions>

    <traci_server>
        <remote-port value="55039"/>
    </traci_server>

</sumoConfiguration>
-->

<meandata xmlns:xsi="http://www.w3.org/2001/XMLSchema-instance" xsi:noNamespaceSchemaLocation="http://sumo.dlr.de/xsd/meandata_file.xsd">
    <interval begin="0.00" end="10190.00" id="01">
        <edge id="-E1">
            <lane id="-E1_0" sampledSeconds="0.00" departed="0" arrived="0" entered="0" left="0" laneChangedFrom="0" laneChangedTo="0"/>
            <lane id="-E1_1" sampledSeconds="2364.08" traveltime="8.01" overlapTraveltime="8.41" density="2.59" laneDensity="2.59" occupancy="1.21" waitingTime="0.00" timeLoss="429.04" speed="11.25" speedRelative="0.81" departed="0" arrived="288" entered="278" left="0" laneChangedFrom="0" laneChangedTo="10"/>
            <lane id="-E1_2" sampledSeconds="3789.96" traveltime="7.35" overlapTraveltime="7.74" density="4.15" laneDensity="4.15" occupancy="1.98" waitingTime="0.00" timeLoss="432.53" speed="12.23" speedRelative="0.88" departed="0" arrived="491" entered="501" left="0" laneChangedFrom="10" laneChangedTo="0"/>
        </edge>
        <edge id="-E2">
            <lane id="-E2_0" sampledSeconds="0.00" departed="0" arrived="0" entered="0" left="0" laneChangedFrom="0" laneChangedTo="0"/>
            <lane id="-E2_1" sampledSeconds="1784.57" traveltime="8.04" overlapTraveltime="8.44" density="1.95" laneDensity="1.95" occupancy="0.91" waitingTime="0.00" timeLoss="311.72" speed="11.21" speedRelative="0.81" departed="0" arrived="214" entered="212" left="0" laneChangedFrom="0" laneChangedTo="2"/>
            <lane id="-E2_2" sampledSeconds="4548.29" traveltime="7.42" overlapTraveltime="7.81" density="4.98" laneDensity="4.98" occupancy="2.36" waitingTime="0.00" timeLoss="553.65" speed="12.11" speedRelative="0.87" departed="0" arrived="589" entered="591" left="0" laneChangedFrom="2" laneChangedTo="0"/>
        </edge>
        <edge id="-E3">
            <lane id="-E3_0" sampledSeconds="0.00" departed="0" arrived="0" entered="0" left="0" laneChangedFrom="0" laneChangedTo="0"/>
            <lane id="-E3_1" sampledSeconds="2285.49" traveltime="8.00" overlapTraveltime="8.39" density="2.50" laneDensity="2.50" occupancy="1.17" waitingTime="0.00" timeLoss="411.19" speed="11.27" speedRelative="0.81" departed="0" arrived="278" entered="271" left="0" laneChangedFrom="0" laneChangedTo="7"/>
            <lane id="-E3_2" sampledSeconds="3956.32" traveltime="7.28" overlapTraveltime="7.67" density="4.33" laneDensity="4.33" occupancy="2.06" waitingTime="0.00" timeLoss="423.22" speed="12.34" speedRelative="0.89" departed="0" arrived="519" entered="526" left="0" laneChangedFrom="7" laneChangedTo="0"/>
        </edge>
        <edge id="-E4">
            <lane id="-E4_0" sampledSeconds="0.00" departed="0" arrived="0" entered="0" left="0" laneChangedFrom="0" laneChangedTo="0"/>
            <lane id="-E4_1" sampledSeconds="1747.94" traveltime="7.98" overlapTraveltime="8.37" density="1.91" laneDensity="1.91" occupancy="0.89" waitingTime="0.00" timeLoss="312.80" speed="11.30" speedRelative="0.81" departed="0" arrived="211" entered="211" left="0" laneChangedFrom="0" laneChangedTo="0"/>
            <lane id="-E4_2" sampledSeconds="4212.97" traveltime="7.36" overlapTraveltime="7.74" density="4.61" laneDensity="4.61" occupancy="2.19" waitingTime="0.00" timeLoss="473.07" speed="12.22" speedRelative="0.88" departed="0" arrived="550" entered="550" left="0" laneChangedFrom="0" laneChangedTo="0"/>
        </edge>
        <edge id="E1">
            <lane id="E1_0" sampledSeconds="0.00" departed="0" arrived="0" entered="0" left="0" laneChangedFrom="0" laneChangedTo="0"/>
            <lane id="E1_1" sampledSeconds="11788.44" traveltime="30.43" overlapTraveltime="31.82" density="12.91" laneDensity="12.91" occupancy="6.40" waitingTime="6466.00" timeLoss="9514.98" speed="2.97" speedRelative="0.18" departed="823" arrived="0" entered="0" left="212" laneChangedFrom="611" laneChangedTo="0"/>
            <lane id="E1_2" sampledSeconds="17060.02" traveltime="41.54" overlapTraveltime="41.82" density="18.69" laneDensity="18.69" occupancy="9.26" waitingTime="11174.00" timeLoss="14587.02" speed="2.26" speedRelative="0.14" departed="0" arrived="0" entered="0" left="611" laneChangedFrom="0" laneChangedTo="611"/>
        </edge>
        <edge id="E2">
            <lane id="E2_0" sampledSeconds="0.00" departed="0" arrived="0" entered="0" left="0" laneChangedFrom="0" laneChangedTo="0"/>
            <lane id="E2_1" sampledSeconds="10661.44" traveltime="28.38" overlapTraveltime="29.61" density="11.68" laneDensity="11.68" occupancy="5.76" waitingTime="5414.00" timeLoss="8432.90" speed="3.19" speedRelative="0.19" departed="760" arrived="0" entered="0" left="271" laneChangedFrom="497" laneChangedTo="8"/>
            <lane id="E2_2" sampledSeconds="14766.64" traveltime="40.81" overlapTraveltime="41.15" density="16.17" laneDensity="16.17" occupancy="8.05" waitingTime="9810.00" timeLoss="12619.37" speed="2.30" speedRelative="0.14" departed="0" arrived="0" entered="0" left="489" laneChangedFrom="8" laneChangedTo="497"/>
        </edge>
        <edge id="E3">
            <lane id="E3_0" sampledSeconds="0.00" departed="0" arrived="0" entered="0" left="0" laneChangedFrom="0" laneChangedTo="0"/>
            <lane id="E3_1" sampledSeconds="10554.94" traveltime="28.69" overlapTraveltime="30.02" density="11.56" laneDensity="11.56" occupancy="5.72" waitingTime="5535.00" timeLoss="8413.06" speed="3.15" speedRelative="0.19" departed="769" arrived="0" entered="0" left="211" laneChangedFrom="558" laneChangedTo="0"/>
            <lane id="E3_2" sampledSeconds="16317.46" traveltime="43.26" overlapTraveltime="43.42" density="17.87" laneDensity="17.87" occupancy="8.87" waitingTime="10913.00" timeLoss="14040.32" speed="2.18" speedRelative="0.13" departed="0" arrived="0" entered="0" left="558" laneChangedFrom="0" laneChangedTo="558"/>
        </edge>
        <edge id="E4">
            <lane id="E4_0" sampledSeconds="0.00" departed="0" arrived="0" entered="0" left="0" laneChangedFrom="0" laneChangedTo="0"/>
            <lane id="E4_1" sampledSeconds="11614.48" traveltime="30.15" overlapTraveltime="31.40" density="12.72" laneDensity="12.72" occupancy="6.28" waitingTime="6174.00" timeLoss="9324.38" speed="3.01" speedRelative="0.18" departed="788" arrived="0" entered="0" left="278" laneChangedFrom="518" laneChangedTo="8"/>
            <lane id="E4_2" sampledSeconds="17077.43" traveltime="45.21" overlapTraveltime="45.47" density="18.70" laneDensity="18.70" occupancy="9.28" waitingTime="11583.00" timeLoss="14840.96" speed="2.08" speedRelative="0.12" departed="0" arrived="0" entered="0" left="510" laneChangedFrom="8" laneChangedTo="518"/>
        </edge>
    </interval>
</meandata>
