<?xml version="1.0" encoding="UTF-8"?>

<!-- generated on 2025-07-18 10:05:56 by Eclipse SUMO sumo Version 1.23.1
<sumoConfiguration xmlns:xsi="http://www.w3.org/2001/XMLSchema-instance" xsi:noNamespaceSchemaLocation="http://sumo.dlr.de/xsd/sumoConfiguration.xsd">

    <input>
        <net-file value="sumo_simulation/sumo_elements/test.net.xml"/>
        <route-files value="sumo_simulation/sumo_elements/test.rou.xml"/>
        <additional-files value="sumo_simulation/sumo_elements/test.add.xml"/>
    </input>

    <output>
        <tripinfo-output value="sumo_simulation/sumo_elements/metrics/20250718_100556_adaptive_tripinfo_log.xml"/>
    </output>

    <report>
        <log value="sumo_simulation/sumo_elements/metrics/20250718_100556_adaptive_metrics.log"/>
        <duration-log.statistics value="true"/>
    </report>

    <emissions>
        <device.emissions.probability value="1.0"/>
    </emissions>

    <traci_server>
        <remote-port value="60592"/>
    </traci_server>

</sumoConfiguration>
-->

<meandata xmlns:xsi="http://www.w3.org/2001/XMLSchema-instance" xsi:noNamespaceSchemaLocation="http://sumo.dlr.de/xsd/meandata_file.xsd">
    <interval begin="0.00" end="12824.00" id="01">
        <edge id="-E1">
            <lane id="-E1_0" sampledSeconds="0.00" departed="0" arrived="0" entered="0" left="0" laneChangedFrom="0" laneChangedTo="0"/>
            <lane id="-E1_1" sampledSeconds="2531.55" traveltime="8.02" overlapTraveltime="8.41" density="2.20" laneDensity="2.20" occupancy="1.03" waitingTime="0.00" timeLoss="464.77" speed="11.25" speedRelative="0.81" departed="0" arrived="310" entered="297" left="0" laneChangedFrom="0" laneChangedTo="13"/>
            <lane id="-E1_2" sampledSeconds="3609.13" traveltime="7.30" overlapTraveltime="7.68" density="3.14" laneDensity="3.14" occupancy="1.49" waitingTime="0.00" timeLoss="385.34" speed="12.31" speedRelative="0.89" departed="0" arrived="469" entered="482" left="0" laneChangedFrom="13" laneChangedTo="0"/>
        </edge>
        <edge id="-E2">
            <lane id="-E2_0" sampledSeconds="0.00" departed="0" arrived="0" entered="0" left="0" laneChangedFrom="0" laneChangedTo="0"/>
            <lane id="-E2_1" sampledSeconds="3196.03" traveltime="8.09" overlapTraveltime="8.49" density="2.78" laneDensity="2.78" occupancy="1.30" waitingTime="0.00" timeLoss="583.68" speed="11.15" speedRelative="0.80" departed="0" arrived="381" entered="381" left="0" laneChangedFrom="0" laneChangedTo="0"/>
            <lane id="-E2_2" sampledSeconds="3171.02" traveltime="7.21" overlapTraveltime="7.60" density="2.76" laneDensity="2.76" occupancy="1.32" waitingTime="0.00" timeLoss="314.82" speed="12.45" speedRelative="0.90" departed="0" arrived="422" entered="422" left="0" laneChangedFrom="0" laneChangedTo="0"/>
        </edge>
        <edge id="-E3">
            <lane id="-E3_0" sampledSeconds="0.00" departed="0" arrived="0" entered="0" left="0" laneChangedFrom="0" laneChangedTo="0"/>
            <lane id="-E3_1" sampledSeconds="2620.35" traveltime="8.02" overlapTraveltime="8.42" density="2.28" laneDensity="2.28" occupancy="1.06" waitingTime="0.00" timeLoss="476.70" speed="11.24" speedRelative="0.81" departed="0" arrived="319" entered="311" left="0" laneChangedFrom="0" laneChangedTo="8"/>
            <lane id="-E3_2" sampledSeconds="11093.20" traveltime="7.18" overlapTraveltime="7.56" density="9.65" laneDensity="9.65" occupancy="4.58" waitingTime="0.00" timeLoss="1045.65" speed="12.51" speedRelative="0.90" departed="0" arrived="1478" entered="1486" left="0" laneChangedFrom="8" laneChangedTo="0"/>
        </edge>
        <edge id="-E4">
            <lane id="-E4_0" sampledSeconds="0.00" departed="0" arrived="0" entered="0" left="0" laneChangedFrom="0" laneChangedTo="0"/>
            <lane id="-E4_1" sampledSeconds="1709.44" traveltime="7.99" overlapTraveltime="8.38" density="1.49" laneDensity="1.49" occupancy="0.69" waitingTime="0.00" timeLoss="301.29" speed="11.28" speedRelative="0.81" departed="0" arrived="206" entered="206" left="0" laneChangedFrom="0" laneChangedTo="0"/>
            <lane id="-E4_2" sampledSeconds="4269.06" traveltime="7.40" overlapTraveltime="7.79" density="3.72" laneDensity="3.72" occupancy="1.77" waitingTime="0.00" timeLoss="506.25" speed="12.15" speedRelative="0.88" departed="0" arrived="555" entered="555" left="0" laneChangedFrom="0" laneChangedTo="0"/>
        </edge>
        <edge id="E1">
            <lane id="E1_0" sampledSeconds="0.00" departed="0" arrived="0" entered="0" left="0" laneChangedFrom="0" laneChangedTo="0"/>
            <lane id="E1_1" sampledSeconds="82541.62" traveltime="92.60" overlapTraveltime="96.05" density="71.84" laneDensity="71.84" occupancy="35.88" waitingTime="49927.00" timeLoss="63037.74" speed="0.98" speedRelative="0.24" departed="1823" arrived="0" entered="0" left="381" laneChangedFrom="1462" laneChangedTo="20"/>
            <lane id="E1_2" sampledSeconds="127353.62" traveltime="150.95" overlapTraveltime="147.20" density="110.84" laneDensity="110.84" occupancy="55.20" waitingTime="88386.00" timeLoss="109228.14" speed="0.64" speedRelative="0.15" departed="0" arrived="0" entered="0" left="1442" laneChangedFrom="20" laneChangedTo="1462"/>
        </edge>
        <edge id="E2">
            <lane id="E2_0" sampledSeconds="0.00" departed="0" arrived="0" entered="0" left="0" laneChangedFrom="0" laneChangedTo="0"/>
            <lane id="E2_1" sampledSeconds="12060.23" traveltime="31.95" overlapTraveltime="33.15" density="10.50" laneDensity="10.50" occupancy="5.18" waitingTime="6563.00" timeLoss="9781.22" speed="2.85" speedRelative="0.17" departed="760" arrived="0" entered="0" left="311" laneChangedFrom="470" laneChangedTo="21"/>
            <lane id="E2_2" sampledSeconds="20048.95" traveltime="56.19" overlapTraveltime="56.45" density="17.45" laneDensity="17.45" occupancy="8.69" waitingTime="14511.00" timeLoss="17946.45" speed="1.68" speedRelative="0.10" departed="0" arrived="0" entered="0" left="449" laneChangedFrom="21" laneChangedTo="470"/>
        </edge>
        <edge id="E3">
            <lane id="E3_0" sampledSeconds="0.00" departed="0" arrived="0" entered="0" left="0" laneChangedFrom="0" laneChangedTo="0"/>
            <lane id="E3_1" sampledSeconds="10622.01" traveltime="28.52" overlapTraveltime="29.87" density="9.24" laneDensity="9.24" occupancy="4.58" waitingTime="5502.00" timeLoss="8460.67" speed="3.17" speedRelative="0.19" departed="769" arrived="0" entered="0" left="206" laneChangedFrom="564" laneChangedTo="1"/>
            <lane id="E3_2" sampledSeconds="18584.43" traveltime="49.48" overlapTraveltime="49.99" density="16.17" laneDensity="16.17" occupancy="8.02" waitingTime="7669.00" timeLoss="10655.72" speed="1.89" speedRelative="0.45" departed="0" arrived="0" entered="0" left="563" laneChangedFrom="1" laneChangedTo="564"/>
        </edge>
        <edge id="E4">
            <lane id="E4_0" sampledSeconds="0.00" departed="0" arrived="0" entered="0" left="0" laneChangedFrom="0" laneChangedTo="0"/>
            <lane id="E4_1" sampledSeconds="13925.65" traveltime="36.18" overlapTraveltime="37.48" density="12.12" laneDensity="12.12" occupancy="5.99" waitingTime="8173.00" timeLoss="11609.03" speed="2.52" speedRelative="0.15" departed="788" arrived="0" entered="0" left="297" laneChangedFrom="505" laneChangedTo="14"/>
            <lane id="E4_2" sampledSeconds="20719.29" traveltime="55.24" overlapTraveltime="55.42" density="18.03" laneDensity="18.03" occupancy="8.96" waitingTime="14740.00" timeLoss="18505.11" speed="1.71" speedRelative="0.10" departed="0" arrived="0" entered="0" left="491" laneChangedFrom="14" laneChangedTo="505"/>
        </edge>
    </interval>
</meandata>
