<?xml version="1.0" encoding="UTF-8"?>

<!-- generated on 2025-07-18 09:39:02 by Eclipse SUMO sumo Version 1.23.1
<sumoConfiguration xmlns:xsi="http://www.w3.org/2001/XMLSchema-instance" xsi:noNamespaceSchemaLocation="http://sumo.dlr.de/xsd/sumoConfiguration.xsd">

    <input>
        <net-file value="sumo_simulation/sumo_elements/test.net.xml"/>
        <route-files value="sumo_simulation/sumo_elements/test.rou.xml"/>
        <additional-files value="sumo_simulation/sumo_elements/test.add.xml"/>
    </input>

    <output>
        <tripinfo-output value="sumo_simulation/sumo_elements/metrics/20250718_093902_adaptive_tripinfo_log.xml"/>
    </output>

    <report>
        <log value="sumo_simulation/sumo_elements/metrics/20250718_093902_adaptive_metrics.log"/>
        <duration-log.statistics value="true"/>
    </report>

    <emissions>
        <device.emissions.probability value="1.0"/>
    </emissions>

    <traci_server>
        <remote-port value="60484"/>
    </traci_server>

</sumoConfiguration>
-->

<meandata xmlns:xsi="http://www.w3.org/2001/XMLSchema-instance" xsi:noNamespaceSchemaLocation="http://sumo.dlr.de/xsd/meandata_file.xsd">
    <interval begin="0.00" end="10137.00" id="01">
        <edge id="-E1">
            <lane id="-E1_0" sampledSeconds="0.00" departed="0" arrived="0" entered="0" left="0" laneChangedFrom="0" laneChangedTo="0"/>
            <lane id="-E1_1" sampledSeconds="2394.16" traveltime="7.98" overlapTraveltime="8.37" density="2.64" laneDensity="2.64" occupancy="1.23" waitingTime="0.00" timeLoss="437.34" speed="11.31" speedRelative="0.81" departed="0" arrived="293" entered="284" left="0" laneChangedFrom="0" laneChangedTo="9"/>
            <lane id="-E1_2" sampledSeconds="3745.06" traveltime="7.33" overlapTraveltime="7.71" density="4.12" laneDensity="4.12" occupancy="1.96" waitingTime="0.00" timeLoss="405.34" speed="12.27" speedRelative="0.88" departed="0" arrived="486" entered="495" left="0" laneChangedFrom="9" laneChangedTo="0"/>
        </edge>
        <edge id="-E2">
            <lane id="-E2_0" sampledSeconds="0.00" departed="0" arrived="0" entered="0" left="0" laneChangedFrom="0" laneChangedTo="0"/>
            <lane id="-E2_1" sampledSeconds="1812.47" traveltime="8.09" overlapTraveltime="8.49" density="2.00" laneDensity="2.00" occupancy="0.93" waitingTime="0.00" timeLoss="321.16" speed="11.15" speedRelative="0.80" departed="0" arrived="216" entered="216" left="0" laneChangedFrom="0" laneChangedTo="0"/>
            <lane id="-E2_2" sampledSeconds="4534.53" traveltime="7.42" overlapTraveltime="7.81" density="4.99" laneDensity="4.99" occupancy="2.37" waitingTime="0.00" timeLoss="554.06" speed="12.12" speedRelative="0.87" departed="0" arrived="587" entered="587" left="0" laneChangedFrom="0" laneChangedTo="0"/>
        </edge>
        <edge id="-E3">
            <lane id="-E3_0" sampledSeconds="0.00" departed="0" arrived="0" entered="0" left="0" laneChangedFrom="0" laneChangedTo="0"/>
            <lane id="-E3_1" sampledSeconds="2529.15" traveltime="8.02" overlapTraveltime="8.41" density="2.78" laneDensity="2.78" occupancy="1.30" waitingTime="0.00" timeLoss="459.55" speed="11.24" speedRelative="0.81" departed="0" arrived="310" entered="300" left="0" laneChangedFrom="0" laneChangedTo="10"/>
            <lane id="-E3_2" sampledSeconds="3712.32" traveltime="7.23" overlapTraveltime="7.62" density="4.09" laneDensity="4.09" occupancy="1.94" waitingTime="0.00" timeLoss="379.02" speed="12.42" speedRelative="0.89" departed="0" arrived="487" entered="497" left="0" laneChangedFrom="10" laneChangedTo="0"/>
        </edge>
        <edge id="-E4">
            <lane id="-E4_0" sampledSeconds="0.00" departed="0" arrived="0" entered="0" left="0" laneChangedFrom="0" laneChangedTo="0"/>
            <lane id="-E4_1" sampledSeconds="1909.78" traveltime="8.01" overlapTraveltime="8.41" density="2.10" laneDensity="2.10" occupancy="0.98" waitingTime="0.00" timeLoss="345.63" speed="11.25" speedRelative="0.81" departed="0" arrived="230" entered="228" left="0" laneChangedFrom="0" laneChangedTo="2"/>
            <lane id="-E4_2" sampledSeconds="4067.53" traveltime="7.35" overlapTraveltime="7.74" density="4.48" laneDensity="4.48" occupancy="2.13" waitingTime="0.00" timeLoss="458.33" speed="12.22" speedRelative="0.88" departed="0" arrived="531" entered="533" left="0" laneChangedFrom="2" laneChangedTo="0"/>
        </edge>
        <edge id="E1">
            <lane id="E1_0" sampledSeconds="0.00" departed="0" arrived="0" entered="0" left="0" laneChangedFrom="0" laneChangedTo="0"/>
            <lane id="E1_1" sampledSeconds="18061.62" traveltime="48.96" overlapTraveltime="50.82" density="19.89" laneDensity="19.89" occupancy="9.88" waitingTime="7444.00" timeLoss="9951.56" speed="1.86" speedRelative="0.45" departed="823" arrived="0" entered="0" left="216" laneChangedFrom="617" laneChangedTo="10"/>
            <lane id="E1_2" sampledSeconds="24497.17" traveltime="57.49" overlapTraveltime="57.90" density="26.97" laneDensity="26.97" occupancy="13.38" waitingTime="11890.00" timeLoss="15469.78" speed="1.63" speedRelative="0.39" departed="0" arrived="0" entered="0" left="607" laneChangedFrom="10" laneChangedTo="617"/>
        </edge>
        <edge id="E2">
            <lane id="E2_0" sampledSeconds="0.00" departed="0" arrived="0" entered="0" left="0" laneChangedFrom="0" laneChangedTo="0"/>
            <lane id="E2_1" sampledSeconds="10584.78" traveltime="27.93" overlapTraveltime="29.12" density="11.65" laneDensity="11.65" occupancy="5.74" waitingTime="5236.00" timeLoss="8310.00" speed="3.25" speedRelative="0.19" departed="760" arrived="0" entered="0" left="300" laneChangedFrom="475" laneChangedTo="15"/>
            <lane id="E2_2" sampledSeconds="17307.72" traveltime="48.38" overlapTraveltime="48.70" density="19.06" laneDensity="19.06" occupancy="9.51" waitingTime="12102.00" timeLoss="15197.07" speed="1.94" speedRelative="0.12" departed="0" arrived="0" entered="0" left="460" laneChangedFrom="15" laneChangedTo="475"/>
        </edge>
        <edge id="E3">
            <lane id="E3_0" sampledSeconds="0.00" departed="0" arrived="0" entered="0" left="0" laneChangedFrom="0" laneChangedTo="0"/>
            <lane id="E3_1" sampledSeconds="11264.56" traveltime="30.28" overlapTraveltime="31.62" density="12.40" laneDensity="12.40" occupancy="6.14" waitingTime="6057.00" timeLoss="9080.54" speed="2.99" speedRelative="0.18" departed="769" arrived="0" entered="0" left="228" laneChangedFrom="543" laneChangedTo="2"/>
            <lane id="E3_2" sampledSeconds="22478.30" traveltime="60.28" overlapTraveltime="60.56" density="24.75" laneDensity="24.75" occupancy="12.29" waitingTime="11342.00" timeLoss="14544.78" speed="1.56" speedRelative="0.37" departed="0" arrived="0" entered="0" left="541" laneChangedFrom="2" laneChangedTo="543"/>
        </edge>
        <edge id="E4">
            <lane id="E4_0" sampledSeconds="0.00" departed="0" arrived="0" entered="0" left="0" laneChangedFrom="0" laneChangedTo="0"/>
            <lane id="E4_1" sampledSeconds="12057.24" traveltime="31.29" overlapTraveltime="32.55" density="13.27" laneDensity="13.27" occupancy="6.56" waitingTime="6562.00" timeLoss="9757.13" speed="2.91" speedRelative="0.17" departed="788" arrived="0" entered="0" left="284" laneChangedFrom="513" laneChangedTo="9"/>
            <lane id="E4_2" sampledSeconds="18214.02" traveltime="48.34" overlapTraveltime="48.57" density="20.05" laneDensity="20.05" occupancy="9.95" waitingTime="12621.00" timeLoss="15982.41" speed="1.95" speedRelative="0.12" departed="0" arrived="0" entered="0" left="504" laneChangedFrom="9" laneChangedTo="513"/>
        </edge>
    </interval>
</meandata>
