<?xml version="1.0" encoding="UTF-8"?>

<!-- generated on 2025-07-18 09:59:14 by Eclipse SUMO sumo Version 1.23.1
<sumoConfiguration xmlns:xsi="http://www.w3.org/2001/XMLSchema-instance" xsi:noNamespaceSchemaLocation="http://sumo.dlr.de/xsd/sumoConfiguration.xsd">

    <input>
        <net-file value="sumo_simulation/sumo_elements/test.net.xml"/>
        <route-files value="sumo_simulation/sumo_elements/test.rou.xml"/>
        <additional-files value="sumo_simulation/sumo_elements/test.add.xml"/>
    </input>

    <output>
        <tripinfo-output value="sumo_simulation/sumo_elements/metrics/20250718_095914_adaptive_tripinfo_log.xml"/>
    </output>

    <report>
        <log value="sumo_simulation/sumo_elements/metrics/20250718_095914_adaptive_metrics.log"/>
        <duration-log.statistics value="true"/>
    </report>

    <emissions>
        <device.emissions.probability value="1.0"/>
    </emissions>

    <traci_server>
        <remote-port value="60557"/>
    </traci_server>

</sumoConfiguration>
-->

<meandata xmlns:xsi="http://www.w3.org/2001/XMLSchema-instance" xsi:noNamespaceSchemaLocation="http://sumo.dlr.de/xsd/meandata_file.xsd">
    <interval begin="0.00" end="15292.00" id="01">
        <edge id="-E1">
            <lane id="-E1_0" sampledSeconds="0.00" departed="0" arrived="0" entered="0" left="0" laneChangedFrom="0" laneChangedTo="0"/>
            <lane id="-E1_1" sampledSeconds="2659.37" traveltime="8.04" overlapTraveltime="8.44" density="1.94" laneDensity="1.94" occupancy="0.91" waitingTime="0.00" timeLoss="490.73" speed="11.21" speedRelative="0.81" departed="0" arrived="321" entered="317" left="0" laneChangedFrom="0" laneChangedTo="4"/>
            <lane id="-E1_2" sampledSeconds="3489.11" traveltime="7.27" overlapTraveltime="7.66" density="2.55" laneDensity="2.55" occupancy="1.21" waitingTime="0.00" timeLoss="365.71" speed="12.36" speedRelative="0.89" departed="0" arrived="458" entered="462" left="0" laneChangedFrom="4" laneChangedTo="0"/>
        </edge>
        <edge id="-E2">
            <lane id="-E2_0" sampledSeconds="0.00" departed="0" arrived="0" entered="0" left="0" laneChangedFrom="0" laneChangedTo="0"/>
            <lane id="-E2_1" sampledSeconds="3339.67" traveltime="8.06" overlapTraveltime="8.46" density="2.44" laneDensity="2.44" occupancy="1.14" waitingTime="0.00" timeLoss="599.03" speed="11.18" speedRelative="0.81" departed="0" arrived="399" entered="399" left="0" laneChangedFrom="0" laneChangedTo="0"/>
            <lane id="-E2_2" sampledSeconds="3030.17" traveltime="7.20" overlapTraveltime="7.58" density="2.21" laneDensity="2.21" occupancy="1.06" waitingTime="0.00" timeLoss="297.55" speed="12.48" speedRelative="0.90" departed="0" arrived="404" entered="404" left="0" laneChangedFrom="0" laneChangedTo="0"/>
        </edge>
        <edge id="-E3">
            <lane id="-E3_0" sampledSeconds="0.00" departed="0" arrived="0" entered="0" left="0" laneChangedFrom="0" laneChangedTo="0"/>
            <lane id="-E3_1" sampledSeconds="2525.21" traveltime="7.97" overlapTraveltime="8.36" density="1.84" laneDensity="1.84" occupancy="0.86" waitingTime="0.00" timeLoss="458.47" speed="11.32" speedRelative="0.81" departed="0" arrived="313" entered="299" left="0" laneChangedFrom="0" laneChangedTo="14"/>
            <lane id="-E3_2" sampledSeconds="11190.59" traveltime="7.20" overlapTraveltime="7.58" density="8.17" laneDensity="8.17" occupancy="3.87" waitingTime="0.00" timeLoss="1048.33" speed="12.48" speedRelative="0.90" departed="0" arrived="1484" entered="1498" left="0" laneChangedFrom="14" laneChangedTo="0"/>
        </edge>
        <edge id="-E4">
            <lane id="-E4_0" sampledSeconds="0.00" departed="0" arrived="0" entered="0" left="0" laneChangedFrom="0" laneChangedTo="0"/>
            <lane id="-E4_1" sampledSeconds="1933.89" traveltime="7.97" overlapTraveltime="8.36" density="1.41" laneDensity="1.41" occupancy="0.66" waitingTime="0.00" timeLoss="350.14" speed="11.31" speedRelative="0.81" departed="0" arrived="234" entered="234" left="0" laneChangedFrom="0" laneChangedTo="0"/>
            <lane id="-E4_2" sampledSeconds="4057.60" traveltime="7.38" overlapTraveltime="7.77" density="2.96" laneDensity="2.96" occupancy="1.41" waitingTime="0.00" timeLoss="461.27" speed="12.18" speedRelative="0.88" departed="0" arrived="527" entered="527" left="0" laneChangedFrom="0" laneChangedTo="0"/>
        </edge>
        <edge id="E1">
            <lane id="E1_0" sampledSeconds="0.00" departed="0" arrived="0" entered="0" left="0" laneChangedFrom="0" laneChangedTo="0"/>
            <lane id="E1_1" sampledSeconds="104339.96" traveltime="110.04" overlapTraveltime="114.06" density="76.15" laneDensity="76.15" occupancy="38.04" waitingTime="69269.00" timeLoss="83575.17" speed="0.83" speedRelative="0.20" departed="1823" arrived="0" entered="0" left="399" laneChangedFrom="1441" laneChangedTo="17"/>
            <lane id="E1_2" sampledSeconds="157030.79" traveltime="200.42" overlapTraveltime="193.92" density="114.61" laneDensity="114.61" occupancy="57.14" waitingTime="117850.00" timeLoss="140099.98" speed="0.49" speedRelative="0.12" departed="0" arrived="0" entered="0" left="1424" laneChangedFrom="17" laneChangedTo="1441"/>
        </edge>
        <edge id="E2">
            <lane id="E2_0" sampledSeconds="0.00" departed="0" arrived="0" entered="0" left="0" laneChangedFrom="0" laneChangedTo="0"/>
            <lane id="E2_1" sampledSeconds="10842.34" traveltime="28.71" overlapTraveltime="29.90" density="7.91" laneDensity="7.91" occupancy="3.90" waitingTime="5500.00" timeLoss="8581.36" speed="3.16" speedRelative="0.19" departed="760" arrived="0" entered="0" left="299" laneChangedFrom="481" laneChangedTo="20"/>
            <lane id="E2_2" sampledSeconds="18186.19" traveltime="50.77" overlapTraveltime="51.05" density="13.27" laneDensity="13.27" occupancy="6.60" waitingTime="12776.00" timeLoss="16066.07" speed="1.85" speedRelative="0.11" departed="0" arrived="0" entered="0" left="461" laneChangedFrom="20" laneChangedTo="481"/>
        </edge>
        <edge id="E3">
            <lane id="E3_0" sampledSeconds="0.00" departed="0" arrived="0" entered="0" left="0" laneChangedFrom="0" laneChangedTo="0"/>
            <lane id="E3_1" sampledSeconds="11452.02" traveltime="31.13" overlapTraveltime="32.46" density="8.36" laneDensity="8.36" occupancy="4.14" waitingTime="6334.00" timeLoss="9283.80" speed="2.91" speedRelative="0.17" departed="769" arrived="0" entered="0" left="234" laneChangedFrom="538" laneChangedTo="3"/>
            <lane id="E3_2" sampledSeconds="22809.67" traveltime="60.60" overlapTraveltime="60.89" density="16.65" laneDensity="16.65" occupancy="8.28" waitingTime="11658.00" timeLoss="14784.10" speed="1.55" speedRelative="0.37" departed="0" arrived="0" entered="0" left="535" laneChangedFrom="3" laneChangedTo="538"/>
        </edge>
        <edge id="E4">
            <lane id="E4_0" sampledSeconds="0.00" departed="0" arrived="0" entered="0" left="0" laneChangedFrom="0" laneChangedTo="0"/>
            <lane id="E4_1" sampledSeconds="12254.56" traveltime="31.50" overlapTraveltime="32.70" density="8.94" laneDensity="8.94" occupancy="4.41" waitingTime="6594.00" timeLoss="9909.63" speed="2.89" speedRelative="0.17" departed="788" arrived="0" entered="0" left="317" laneChangedFrom="486" laneChangedTo="15"/>
            <lane id="E4_2" sampledSeconds="21297.05" traveltime="57.25" overlapTraveltime="57.45" density="15.54" laneDensity="15.54" occupancy="7.74" waitingTime="15612.00" timeLoss="19108.48" speed="1.65" speedRelative="0.10" departed="0" arrived="0" entered="0" left="471" laneChangedFrom="15" laneChangedTo="486"/>
        </edge>
    </interval>
</meandata>
