<?xml version="1.0" encoding="UTF-8"?>

<!-- generated on 2025-07-20 12:40:07 by Eclipse SUMO sumo Version 1.23.1
<sumoConfiguration xmlns:xsi="http://www.w3.org/2001/XMLSchema-instance" xsi:noNamespaceSchemaLocation="http://sumo.dlr.de/xsd/sumoConfiguration.xsd">

    <input>
        <net-file value="sumo_simulation/sumo_elements/test.net.xml"/>
        <route-files value="sumo_simulation/sumo_elements/test.rou.xml"/>
        <additional-files value="sumo_simulation/sumo_elements/test.add.xml"/>
    </input>

    <output>
        <tripinfo-output value="sumo_simulation/sumo_elements/metrics/20250720_124006_tripinfo_log.xml"/>
    </output>

    <report>
        <log value="sumo_simulation/sumo_elements/metrics/20250720_124006_metrics.log"/>
        <duration-log.statistics value="true"/>
    </report>

    <emissions>
        <device.emissions.probability value="1.0"/>
    </emissions>

    <traci_server>
        <remote-port value="55086"/>
    </traci_server>

</sumoConfiguration>
-->

<meandata xmlns:xsi="http://www.w3.org/2001/XMLSchema-instance" xsi:noNamespaceSchemaLocation="http://sumo.dlr.de/xsd/meandata_file.xsd">
    <interval begin="0.00" end="10152.00" id="01">
        <edge id="-E1">
            <lane id="-E1_0" sampledSeconds="0.00" departed="0" arrived="0" entered="0" left="0" laneChangedFrom="0" laneChangedTo="0"/>
            <lane id="-E1_1" sampledSeconds="2223.88" traveltime="8.08" overlapTraveltime="8.47" density="2.44" laneDensity="2.44" occupancy="1.14" waitingTime="0.00" timeLoss="412.40" speed="11.17" speedRelative="0.80" departed="0" arrived="271" entered="261" left="0" laneChangedFrom="0" laneChangedTo="10"/>
            <lane id="-E1_2" sampledSeconds="3933.53" traveltime="7.35" overlapTraveltime="7.74" density="4.32" laneDensity="4.32" occupancy="2.06" waitingTime="0.00" timeLoss="455.44" speed="12.22" speedRelative="0.88" departed="0" arrived="508" entered="518" left="0" laneChangedFrom="10" laneChangedTo="0"/>
        </edge>
        <edge id="-E2">
            <lane id="-E2_0" sampledSeconds="0.00" departed="0" arrived="0" entered="0" left="0" laneChangedFrom="0" laneChangedTo="0"/>
            <lane id="-E2_1" sampledSeconds="1274.21" traveltime="8.03" overlapTraveltime="8.43" density="1.40" laneDensity="1.40" occupancy="0.65" waitingTime="0.00" timeLoss="221.74" speed="11.23" speedRelative="0.81" departed="0" arrived="153" entered="151" left="0" laneChangedFrom="0" laneChangedTo="2"/>
            <lane id="-E2_2" sampledSeconds="5039.98" traveltime="7.44" overlapTraveltime="7.83" density="5.54" laneDensity="5.54" occupancy="2.62" waitingTime="0.00" timeLoss="617.10" speed="12.08" speedRelative="0.87" departed="0" arrived="650" entered="652" left="0" laneChangedFrom="2" laneChangedTo="0"/>
        </edge>
        <edge id="-E3">
            <lane id="-E3_0" sampledSeconds="0.00" departed="0" arrived="0" entered="0" left="0" laneChangedFrom="0" laneChangedTo="0"/>
            <lane id="-E3_1" sampledSeconds="2068.30" traveltime="8.03" overlapTraveltime="8.43" density="2.27" laneDensity="2.27" occupancy="1.06" waitingTime="0.00" timeLoss="374.07" speed="11.22" speedRelative="0.81" departed="0" arrived="252" entered="243" left="0" laneChangedFrom="0" laneChangedTo="9"/>
            <lane id="-E3_2" sampledSeconds="4161.26" traveltime="7.28" overlapTraveltime="7.67" density="4.57" laneDensity="4.57" occupancy="2.18" waitingTime="0.00" timeLoss="451.18" speed="12.34" speedRelative="0.89" departed="0" arrived="545" entered="554" left="0" laneChangedFrom="9" laneChangedTo="0"/>
        </edge>
        <edge id="-E4">
            <lane id="-E4_0" sampledSeconds="0.00" departed="0" arrived="0" entered="0" left="0" laneChangedFrom="0" laneChangedTo="0"/>
            <lane id="-E4_1" sampledSeconds="1419.91" traveltime="8.00" overlapTraveltime="8.40" density="1.56" laneDensity="1.56" occupancy="0.73" waitingTime="0.00" timeLoss="249.50" speed="11.27" speedRelative="0.81" departed="0" arrived="171" entered="166" left="0" laneChangedFrom="0" laneChangedTo="5"/>
            <lane id="-E4_2" sampledSeconds="4545.91" traveltime="7.39" overlapTraveltime="7.77" density="5.00" laneDensity="5.00" occupancy="2.37" waitingTime="0.00" timeLoss="533.56" speed="12.17" speedRelative="0.88" departed="0" arrived="590" entered="595" left="0" laneChangedFrom="5" laneChangedTo="0"/>
        </edge>
        <edge id="E1">
            <lane id="E1_0" sampledSeconds="0.00" departed="0" arrived="0" entered="0" left="0" laneChangedFrom="0" laneChangedTo="0"/>
            <lane id="E1_1" sampledSeconds="13700.77" traveltime="36.49" overlapTraveltime="38.20" density="15.06" laneDensity="15.06" occupancy="7.49" waitingTime="8465.00" timeLoss="11537.68" speed="2.48" speedRelative="0.15" departed="823" arrived="0" entered="0" left="151" laneChangedFrom="673" laneChangedTo="1"/>
            <lane id="E1_2" sampledSeconds="14140.79" traveltime="33.30" overlapTraveltime="33.68" density="15.55" laneDensity="15.55" occupancy="7.67" waitingTime="8331.00" timeLoss="11566.87" speed="2.81" speedRelative="0.17" departed="0" arrived="0" entered="0" left="672" laneChangedFrom="1" laneChangedTo="673"/>
        </edge>
        <edge id="E2">
            <lane id="E2_0" sampledSeconds="0.00" departed="0" arrived="0" entered="0" left="0" laneChangedFrom="0" laneChangedTo="0"/>
            <lane id="E2_1" sampledSeconds="12900.80" traveltime="34.99" overlapTraveltime="36.40" density="14.18" laneDensity="14.18" occupancy="7.02" waitingTime="7564.00" timeLoss="10716.77" speed="2.60" speedRelative="0.16" departed="760" arrived="0" entered="0" left="243" laneChangedFrom="528" laneChangedTo="11"/>
            <lane id="E2_2" sampledSeconds="14126.08" traveltime="38.46" overlapTraveltime="38.76" density="15.53" laneDensity="15.53" occupancy="7.70" waitingTime="9140.00" timeLoss="11933.25" speed="2.44" speedRelative="0.15" departed="0" arrived="0" entered="0" left="517" laneChangedFrom="11" laneChangedTo="528"/>
        </edge>
        <edge id="E3">
            <lane id="E3_0" sampledSeconds="0.00" departed="0" arrived="0" entered="0" left="0" laneChangedFrom="0" laneChangedTo="0"/>
            <lane id="E3_1" sampledSeconds="12466.93" traveltime="34.81" overlapTraveltime="36.42" density="13.71" laneDensity="13.71" occupancy="6.80" waitingTime="7513.00" timeLoss="10406.65" speed="2.60" speedRelative="0.16" departed="769" arrived="0" entered="0" left="166" laneChangedFrom="604" laneChangedTo="1"/>
            <lane id="E3_2" sampledSeconds="13843.90" traveltime="35.57" overlapTraveltime="35.95" density="15.22" laneDensity="15.22" occupancy="7.52" waitingTime="8431.00" timeLoss="11493.81" speed="2.63" speedRelative="0.16" departed="0" arrived="0" entered="0" left="603" laneChangedFrom="1" laneChangedTo="604"/>
        </edge>
        <edge id="E4">
            <lane id="E4_0" sampledSeconds="0.00" departed="0" arrived="0" entered="0" left="0" laneChangedFrom="0" laneChangedTo="0"/>
            <lane id="E4_1" sampledSeconds="13156.68" traveltime="34.60" overlapTraveltime="35.98" density="14.46" laneDensity="14.46" occupancy="7.16" waitingTime="7572.00" timeLoss="10895.61" speed="2.63" speedRelative="0.16" departed="788" arrived="0" entered="0" left="261" laneChangedFrom="543" laneChangedTo="16"/>
            <lane id="E4_2" sampledSeconds="15227.30" traveltime="39.75" overlapTraveltime="40.09" density="16.74" laneDensity="16.74" occupancy="8.28" waitingTime="9645.00" timeLoss="12958.69" speed="2.36" speedRelative="0.14" departed="0" arrived="0" entered="0" left="527" laneChangedFrom="16" laneChangedTo="543"/>
        </edge>
    </interval>
</meandata>
