<?xml version="1.0" encoding="UTF-8"?>

<!-- generated on 2025-07-20 12:38:18 by Eclipse SUMO sumo Version 1.23.1
<sumoConfiguration xmlns:xsi="http://www.w3.org/2001/XMLSchema-instance" xsi:noNamespaceSchemaLocation="http://sumo.dlr.de/xsd/sumoConfiguration.xsd">

    <input>
        <net-file value="sumo_simulation/sumo_elements/test.net.xml"/>
        <route-files value="sumo_simulation/sumo_elements/test.rou.xml"/>
        <additional-files value="sumo_simulation/sumo_elements/test.add.xml"/>
    </input>

    <output>
        <tripinfo-output value="sumo_simulation/sumo_elements/metrics/20250720_123818_tripinfo_log.xml"/>
    </output>

    <report>
        <log value="sumo_simulation/sumo_elements/metrics/20250720_123818_metrics.log"/>
        <duration-log.statistics value="true"/>
    </report>

    <emissions>
        <device.emissions.probability value="1.0"/>
    </emissions>

    <traci_server>
        <remote-port value="55079"/>
    </traci_server>

</sumoConfiguration>
-->

<meandata xmlns:xsi="http://www.w3.org/2001/XMLSchema-instance" xsi:noNamespaceSchemaLocation="http://sumo.dlr.de/xsd/meandata_file.xsd">
    <interval begin="0.00" end="10169.00" id="01">
        <edge id="-E1">
            <lane id="-E1_0" sampledSeconds="0.00" departed="0" arrived="0" entered="0" left="0" laneChangedFrom="0" laneChangedTo="0"/>
            <lane id="-E1_1" sampledSeconds="2460.11" traveltime="8.01" overlapTraveltime="8.40" density="2.70" laneDensity="2.70" occupancy="1.26" waitingTime="0.00" timeLoss="445.10" speed="11.26" speedRelative="0.81" departed="0" arrived="301" entered="293" left="0" laneChangedFrom="0" laneChangedTo="8"/>
            <lane id="-E1_2" sampledSeconds="3692.79" traveltime="7.35" overlapTraveltime="7.74" density="4.05" laneDensity="4.05" occupancy="1.93" waitingTime="0.00" timeLoss="421.03" speed="12.23" speedRelative="0.88" departed="0" arrived="478" entered="486" left="0" laneChangedFrom="8" laneChangedTo="0"/>
        </edge>
        <edge id="-E2">
            <lane id="-E2_0" sampledSeconds="0.00" departed="0" arrived="0" entered="0" left="0" laneChangedFrom="0" laneChangedTo="0"/>
            <lane id="-E2_1" sampledSeconds="1699.94" traveltime="8.05" overlapTraveltime="8.45" density="1.87" laneDensity="1.87" occupancy="0.87" waitingTime="0.00" timeLoss="304.86" speed="11.19" speedRelative="0.81" departed="0" arrived="204" entered="203" left="0" laneChangedFrom="0" laneChangedTo="1"/>
            <lane id="-E2_2" sampledSeconds="4637.04" traveltime="7.43" overlapTraveltime="7.82" density="5.09" laneDensity="5.09" occupancy="2.41" waitingTime="0.00" timeLoss="562.87" speed="12.10" speedRelative="0.87" departed="0" arrived="599" entered="600" left="0" laneChangedFrom="1" laneChangedTo="0"/>
        </edge>
        <edge id="-E3">
            <lane id="-E3_0" sampledSeconds="0.00" departed="0" arrived="0" entered="0" left="0" laneChangedFrom="0" laneChangedTo="0"/>
            <lane id="-E3_1" sampledSeconds="2373.74" traveltime="8.01" overlapTraveltime="8.41" density="2.61" laneDensity="2.61" occupancy="1.22" waitingTime="0.00" timeLoss="432.83" speed="11.25" speedRelative="0.81" departed="0" arrived="290" entered="283" left="0" laneChangedFrom="0" laneChangedTo="7"/>
            <lane id="-E3_2" sampledSeconds="3875.82" traveltime="7.28" overlapTraveltime="7.66" density="4.25" laneDensity="4.25" occupancy="2.03" waitingTime="0.00" timeLoss="411.10" speed="12.35" speedRelative="0.89" departed="0" arrived="507" entered="514" left="0" laneChangedFrom="7" laneChangedTo="0"/>
        </edge>
        <edge id="-E4">
            <lane id="-E4_0" sampledSeconds="0.00" departed="0" arrived="0" entered="0" left="0" laneChangedFrom="0" laneChangedTo="0"/>
            <lane id="-E4_1" sampledSeconds="1729.12" traveltime="7.96" overlapTraveltime="8.36" density="1.90" laneDensity="1.90" occupancy="0.89" waitingTime="0.00" timeLoss="311.77" speed="11.32" speedRelative="0.82" departed="0" arrived="209" entered="208" left="0" laneChangedFrom="0" laneChangedTo="1"/>
            <lane id="-E4_2" sampledSeconds="4250.06" traveltime="7.39" overlapTraveltime="7.78" density="4.66" laneDensity="4.66" occupancy="2.22" waitingTime="0.00" timeLoss="488.74" speed="12.16" speedRelative="0.88" departed="0" arrived="552" entered="553" left="0" laneChangedFrom="1" laneChangedTo="0"/>
        </edge>
        <edge id="E1">
            <lane id="E1_0" sampledSeconds="0.00" departed="0" arrived="0" entered="0" left="0" laneChangedFrom="0" laneChangedTo="0"/>
            <lane id="E1_1" sampledSeconds="12115.23" traveltime="31.40" overlapTraveltime="32.83" density="13.30" laneDensity="13.30" occupancy="6.59" waitingTime="6785.00" timeLoss="9858.57" speed="2.88" speedRelative="0.17" departed="823" arrived="0" entered="0" left="203" laneChangedFrom="621" laneChangedTo="1"/>
            <lane id="E1_2" sampledSeconds="18128.76" traveltime="44.10" overlapTraveltime="44.28" density="19.90" laneDensity="19.90" occupancy="9.87" waitingTime="12186.00" timeLoss="15641.69" speed="2.14" speedRelative="0.13" departed="0" arrived="0" entered="0" left="620" laneChangedFrom="1" laneChangedTo="621"/>
        </edge>
        <edge id="E2">
            <lane id="E2_0" sampledSeconds="0.00" departed="0" arrived="0" entered="0" left="0" laneChangedFrom="0" laneChangedTo="0"/>
            <lane id="E2_1" sampledSeconds="11381.02" traveltime="30.27" overlapTraveltime="31.51" density="12.49" laneDensity="12.49" occupancy="6.17" waitingTime="6034.00" timeLoss="9132.13" speed="3.00" speedRelative="0.18" departed="760" arrived="0" entered="0" left="283" laneChangedFrom="494" laneChangedTo="17"/>
            <lane id="E2_2" sampledSeconds="15924.02" traveltime="44.21" overlapTraveltime="44.53" density="17.48" laneDensity="17.48" occupancy="8.72" waitingTime="10883.00" timeLoss="13788.93" speed="2.13" speedRelative="0.13" departed="0" arrived="0" entered="0" left="477" laneChangedFrom="17" laneChangedTo="494"/>
        </edge>
        <edge id="E3">
            <lane id="E3_0" sampledSeconds="0.00" departed="0" arrived="0" entered="0" left="0" laneChangedFrom="0" laneChangedTo="0"/>
            <lane id="E3_1" sampledSeconds="11000.27" traveltime="30.13" overlapTraveltime="31.50" density="12.07" laneDensity="12.07" occupancy="5.98" waitingTime="5997.00" timeLoss="8876.43" speed="3.00" speedRelative="0.18" departed="769" arrived="0" entered="0" left="208" laneChangedFrom="561" laneChangedTo="0"/>
            <lane id="E3_2" sampledSeconds="15004.65" traveltime="39.38" overlapTraveltime="39.67" density="16.47" laneDensity="16.47" occupancy="8.15" waitingTime="9610.00" timeLoss="12708.25" speed="2.39" speedRelative="0.14" departed="0" arrived="0" entered="0" left="561" laneChangedFrom="0" laneChangedTo="561"/>
        </edge>
        <edge id="E4">
            <lane id="E4_0" sampledSeconds="0.00" departed="0" arrived="0" entered="0" left="0" laneChangedFrom="0" laneChangedTo="0"/>
            <lane id="E4_1" sampledSeconds="11107.71" traveltime="28.59" overlapTraveltime="29.79" density="12.19" laneDensity="12.19" occupancy="6.01" waitingTime="5599.00" timeLoss="8788.96" speed="3.18" speedRelative="0.19" departed="788" arrived="0" entered="0" left="293" laneChangedFrom="507" laneChangedTo="12"/>
            <lane id="E4_2" sampledSeconds="16449.81" traveltime="43.80" overlapTraveltime="44.15" density="18.05" laneDensity="18.05" occupancy="8.96" waitingTime="11138.00" timeLoss="14239.69" speed="2.14" speedRelative="0.13" departed="0" arrived="0" entered="0" left="495" laneChangedFrom="12" laneChangedTo="507"/>
        </edge>
    </interval>
</meandata>
